<?xml version="1.0" encoding="UTF-8"?>

<!-- generated on 2021-11-12 19:04:51 by Eclipse SUMO GUI Version 1.10.0
<configuration xmlns:xsi="http://www.w3.org/2001/XMLSchema-instance" xsi:noNamespaceSchemaLocation="http://sumo.dlr.de/xsd/sumoConfiguration.xsd">

    <input>
        <net-file value="Simulation_Environment\Main%20Route%20Simulation\osm.net.xml"/>
        <route-files value="Simulation_Environment\Main%20Route%20Simulation\osm.passenger.trips.xml"/>
        <additional-files value="Simulation_Environment\Main%20Route%20Simulation\osm.poly.xml,Simulation_Environment\Main%20Route%20Simulation\osm.det.xml"/>
    </input>

    <output>
        <tripinfo-output value="tripinfo.xml"/>
    </output>

    <processing>
        <ignore-route-errors value="true"/>
    </processing>

    <routing>
        <device.rerouting.adaptation-steps value="18"/>
        <device.rerouting.adaptation-interval value="10"/>
    </routing>

    <report>
        <verbose value="true"/>
        <duration-log.statistics value="true"/>
        <no-step-log value="true"/>
    </report>

    <traci_server>
        <remote-port value="61996"/>
    </traci_server>

    <gui_only>
        <gui-settings-file value="Simulation_Environment\Main%20Route%20Simulation\osm.view.xml"/>
    </gui_only>

</configuration>
-->

<detector xmlns:xsi="http://www.w3.org/2001/XMLSchema-instance" xsi:noNamespaceSchemaLocation="http://sumo.dlr.de/xsd/det_e2_file.xsd">
   <interval begin="0.00" end="900.00" id="N_0" sampledSeconds="167.51" nVehEntered="16" nVehLeft="16" nVehSeen="16" meanSpeed="3.41" meanTimeLoss="8.96" meanOccupancy="3.27" maxOccupancy="19.00" meanMaxJamLengthInVehicles="0.10" meanMaxJamLengthInMeters="0.58" maxJamLengthInVehicles="1" maxJamLengthInMeters="5.70" jamLengthInVehiclesSum="92" jamLengthInMetersSum="524.40" meanHaltingDuration="12.50" maxHaltingDuration="19.00" haltingDurationSum="100.00" meanIntervalHaltingDuration="12.50" maxIntervalHaltingDuration="19.00" intervalHaltingDurationSum="100.00" startedHalts="8.00" meanVehicleNumber="0.21" maxVehicleNumber="1" />
   <interval begin="0.00" end="900.00" id="N_1" sampledSeconds="0.00" nVehEntered="0" nVehLeft="0" nVehSeen="0" meanSpeed="-1.00" meanTimeLoss="-1.00" meanOccupancy="0.00" maxOccupancy="0.00" meanMaxJamLengthInVehicles="0.00" meanMaxJamLengthInMeters="0.00" maxJamLengthInVehicles="0" maxJamLengthInMeters="0.00" jamLengthInVehiclesSum="0" jamLengthInMetersSum="0.00" meanHaltingDuration="0.00" maxHaltingDuration="0.00" haltingDurationSum="0.00" meanIntervalHaltingDuration="0.00" maxIntervalHaltingDuration="0.00" intervalHaltingDurationSum="0.00" startedHalts="0.00" meanVehicleNumber="0.00" maxVehicleNumber="0" />
   <interval begin="0.00" end="900.00" id="W_0" sampledSeconds="283.30" nVehEntered="24" nVehLeft="24" nVehSeen="24" meanSpeed="3.02" meanTimeLoss="10.22" meanOccupancy="5.58" maxOccupancy="19.00" meanMaxJamLengthInVehicles="0.18" meanMaxJamLengthInMeters="1.05" maxJamLengthInVehicles="1" maxJamLengthInMeters="5.70" jamLengthInVehiclesSum="166" jamLengthInMetersSum="946.20" meanHaltingDuration="12.07" maxHaltingDuration="19.00" haltingDurationSum="181.00" meanIntervalHaltingDuration="12.07" maxIntervalHaltingDuration="19.00" intervalHaltingDurationSum="181.00" startedHalts="15.00" meanVehicleNumber="0.34" maxVehicleNumber="1" />
   <interval begin="0.00" end="900.00" id="W_1" sampledSeconds="1.36" nVehEntered="1" nVehLeft="1" nVehSeen="1" meanSpeed="26.25" meanTimeLoss="0.02" meanOccupancy="0.02" maxOccupancy="19.00" meanMaxJamLengthInVehicles="0.00" meanMaxJamLengthInMeters="0.00" maxJamLengthInVehicles="0" maxJamLengthInMeters="0.00" jamLengthInVehiclesSum="0" jamLengthInMetersSum="0.00" meanHaltingDuration="0.00" maxHaltingDuration="0.00" haltingDurationSum="0.00" meanIntervalHaltingDuration="0.00" maxIntervalHaltingDuration="0.00" intervalHaltingDurationSum="0.00" startedHalts="0.00" meanVehicleNumber="0.00" maxVehicleNumber="1" />
   <interval begin="0.00" end="900.00" id="S_0" sampledSeconds="0.00" nVehEntered="0" nVehLeft="0" nVehSeen="0" meanSpeed="-1.00" meanTimeLoss="-1.00" meanOccupancy="0.00" maxOccupancy="0.00" meanMaxJamLengthInVehicles="0.00" meanMaxJamLengthInMeters="0.00" maxJamLengthInVehicles="0" maxJamLengthInMeters="0.00" jamLengthInVehiclesSum="0" jamLengthInMetersSum="0.00" meanHaltingDuration="0.00" maxHaltingDuration="0.00" haltingDurationSum="0.00" meanIntervalHaltingDuration="0.00" maxIntervalHaltingDuration="0.00" intervalHaltingDurationSum="0.00" startedHalts="0.00" meanVehicleNumber="0.00" maxVehicleNumber="0" />
   <interval begin="0.00" end="900.00" id="S_1" sampledSeconds="0.00" nVehEntered="0" nVehLeft="0" nVehSeen="0" meanSpeed="-1.00" meanTimeLoss="-1.00" meanOccupancy="0.00" maxOccupancy="0.00" meanMaxJamLengthInVehicles="0.00" meanMaxJamLengthInMeters="0.00" maxJamLengthInVehicles="0" maxJamLengthInMeters="0.00" jamLengthInVehiclesSum="0" jamLengthInMetersSum="0.00" meanHaltingDuration="0.00" maxHaltingDuration="0.00" haltingDurationSum="0.00" meanIntervalHaltingDuration="0.00" maxIntervalHaltingDuration="0.00" intervalHaltingDurationSum="0.00" startedHalts="0.00" meanVehicleNumber="0.00" maxVehicleNumber="0" />
   <interval begin="0.00" end="900.00" id="E_0" sampledSeconds="21.12" nVehEntered="1" nVehLeft="1" nVehSeen="1" meanSpeed="1.69" meanTimeLoss="19.75" meanOccupancy="0.43" maxOccupancy="19.00" meanMaxJamLengthInVehicles="0.02" meanMaxJamLengthInMeters="0.10" maxJamLengthInVehicles="1" maxJamLengthInMeters="5.70" jamLengthInVehiclesSum="15" jamLengthInMetersSum="85.50" meanHaltingDuration="16.00" maxHaltingDuration="16.00" haltingDurationSum="16.00" meanIntervalHaltingDuration="16.00" maxIntervalHaltingDuration="16.00" intervalHaltingDurationSum="16.00" startedHalts="1.00" meanVehicleNumber="0.02" maxVehicleNumber="1" />
   <interval begin="0.00" end="900.00" id="E_1" sampledSeconds="0.00" nVehEntered="0" nVehLeft="0" nVehSeen="0" meanSpeed="-1.00" meanTimeLoss="-1.00" meanOccupancy="0.00" maxOccupancy="0.00" meanMaxJamLengthInVehicles="0.00" meanMaxJamLengthInMeters="0.00" maxJamLengthInVehicles="0" maxJamLengthInMeters="0.00" jamLengthInVehiclesSum="0" jamLengthInMetersSum="0.00" meanHaltingDuration="0.00" maxHaltingDuration="0.00" haltingDurationSum="0.00" meanIntervalHaltingDuration="0.00" maxIntervalHaltingDuration="0.00" intervalHaltingDurationSum="0.00" startedHalts="0.00" meanVehicleNumber="0.00" maxVehicleNumber="0" />
   <interval begin="900.00" end="1800.00" id="N_0" sampledSeconds="281.94" nVehEntered="28" nVehLeft="28" nVehSeen="28" meanSpeed="3.55" meanTimeLoss="8.44" meanOccupancy="5.51" maxOccupancy="19.00" meanMaxJamLengthInVehicles="0.17" meanMaxJamLengthInMeters="0.95" maxJamLengthInVehicles="1" maxJamLengthInMeters="5.70" jamLengthInVehiclesSum="150" jamLengthInMetersSum="852.38" meanHaltingDuration="10.38" maxHaltingDuration="19.00" haltingDurationSum="166.00" meanIntervalHaltingDuration="10.38" maxIntervalHaltingDuration="19.00" intervalHaltingDurationSum="166.00" startedHalts="16.00" meanVehicleNumber="0.34" maxVehicleNumber="1" />
   <interval begin="900.00" end="1800.00" id="N_1" sampledSeconds="0.00" nVehEntered="0" nVehLeft="0" nVehSeen="0" meanSpeed="-1.00" meanTimeLoss="-1.00" meanOccupancy="0.00" maxOccupancy="0.00" meanMaxJamLengthInVehicles="0.00" meanMaxJamLengthInMeters="0.00" maxJamLengthInVehicles="0" maxJamLengthInMeters="0.00" jamLengthInVehiclesSum="0" jamLengthInMetersSum="0.00" meanHaltingDuration="0.00" maxHaltingDuration="0.00" haltingDurationSum="0.00" meanIntervalHaltingDuration="0.00" maxIntervalHaltingDuration="0.00" intervalHaltingDurationSum="0.00" startedHalts="0.00" meanVehicleNumber="0.00" maxVehicleNumber="0" />
   <interval begin="900.00" end="1800.00" id="W_0" sampledSeconds="490.40" nVehEntered="39" nVehLeft="39" nVehSeen="39" meanSpeed="2.84" meanTimeLoss="10.90" meanOccupancy="9.82" maxOccupancy="38.00" meanMaxJamLengthInVehicles="0.32" meanMaxJamLengthInMeters="1.83" maxJamLengthInVehicles="2" maxJamLengthInMeters="14.20" jamLengthInVehiclesSum="286" jamLengthInMetersSum="1644.35" meanHaltingDuration="11.21" maxHaltingDuration="20.00" haltingDurationSum="314.00" meanIntervalHaltingDuration="11.21" maxIntervalHaltingDuration="20.00" intervalHaltingDurationSum="314.00" startedHalts="28.00" meanVehicleNumber="0.59" maxVehicleNumber="2" />
   <interval begin="900.00" end="1800.00" id="W_1" sampledSeconds="27.14" nVehEntered="10" nVehLeft="10" nVehSeen="10" meanSpeed="13.15" meanTimeLoss="1.49" meanOccupancy="0.48" maxOccupancy="19.00" meanMaxJamLengthInVehicles="0.01" meanMaxJamLengthInMeters="0.04" maxJamLengthInVehicles="1" maxJamLengthInMeters="5.70" jamLengthInVehiclesSum="6" jamLengthInMetersSum="34.20" meanHaltingDuration="7.00" maxHaltingDuration="7.00" haltingDurationSum="7.00" meanIntervalHaltingDuration="7.00" maxIntervalHaltingDuration="7.00" intervalHaltingDurationSum="7.00" startedHalts="1.00" meanVehicleNumber="0.04" maxVehicleNumber="1" />
   <interval begin="900.00" end="1800.00" id="S_0" sampledSeconds="292.04" nVehEntered="26" nVehLeft="26" nVehSeen="26" meanSpeed="3.18" meanTimeLoss="9.55" meanOccupancy="5.81" maxOccupancy="19.00" meanMaxJamLengthInVehicles="0.18" meanMaxJamLengthInMeters="1.02" maxJamLengthInVehicles="1" maxJamLengthInMeters="5.70" jamLengthInVehiclesSum="161" jamLengthInMetersSum="917.70" meanHaltingDuration="10.47" maxHaltingDuration="23.00" haltingDurationSum="178.00" meanIntervalHaltingDuration="10.47" maxIntervalHaltingDuration="23.00" intervalHaltingDurationSum="178.00" startedHalts="17.00" meanVehicleNumber="0.36" maxVehicleNumber="1" />
   <interval begin="900.00" end="1800.00" id="S_1" sampledSeconds="3.47" nVehEntered="2" nVehLeft="2" nVehSeen="2" meanSpeed="20.58" meanTimeLoss="0.37" meanOccupancy="0.05" maxOccupancy="19.00" meanMaxJamLengthInVehicles="0.00" meanMaxJamLengthInMeters="0.00" maxJamLengthInVehicles="0" maxJamLengthInMeters="0.00" jamLengthInVehiclesSum="0" jamLengthInMetersSum="0.00" meanHaltingDuration="0.00" maxHaltingDuration="0.00" haltingDurationSum="0.00" meanIntervalHaltingDuration="0.00" maxIntervalHaltingDuration="0.00" intervalHaltingDurationSum="0.00" startedHalts="0.00" meanVehicleNumber="0.01" maxVehicleNumber="1" />
   <interval begin="900.00" end="1800.00" id="E_0" sampledSeconds="499.48" nVehEntered="39" nVehLeft="39" nVehSeen="39" meanSpeed="2.60" meanTimeLoss="11.12" meanOccupancy="9.83" maxOccupancy="38.00" meanMaxJamLengthInVehicles="0.33" meanMaxJamLengthInMeters="1.87" maxJamLengthInVehicles="2" maxJamLengthInMeters="13.20" jamLengthInVehiclesSum="297" jamLengthInMetersSum="1686.41" meanHaltingDuration="12.42" maxHaltingDuration="20.00" haltingDurationSum="323.00" meanIntervalHaltingDuration="12.42" maxIntervalHaltingDuration="20.00" intervalHaltingDurationSum="323.00" startedHalts="26.00" meanVehicleNumber="0.59" maxVehicleNumber="2" />
   <interval begin="900.00" end="1800.00" id="E_1" sampledSeconds="90.39" nVehEntered="24" nVehLeft="24" nVehSeen="24" meanSpeed="8.96" meanTimeLoss="2.56" meanOccupancy="1.71" maxOccupancy="19.00" meanMaxJamLengthInVehicles="0.02" meanMaxJamLengthInMeters="0.11" maxJamLengthInVehicles="1" maxJamLengthInMeters="5.70" jamLengthInVehiclesSum="18" jamLengthInMetersSum="102.60" meanHaltingDuration="3.50" maxHaltingDuration="6.00" haltingDurationSum="21.00" meanIntervalHaltingDuration="3.50" maxIntervalHaltingDuration="6.00" intervalHaltingDurationSum="21.00" startedHalts="7.00" meanVehicleNumber="0.12" maxVehicleNumber="1" />
   <interval begin="1800.00" end="2700.00" id="N_0" sampledSeconds="597.20" nVehEntered="54" nVehLeft="54" nVehSeen="54" meanSpeed="3.23" meanTimeLoss="9.30" meanOccupancy="11.82" maxOccupancy="38.00" meanMaxJamLengthInVehicles="0.35" meanMaxJamLengthInMeters="2.07" maxJamLengthInVehicles="2" maxJamLengthInMeters="13.95" jamLengthInVehiclesSum="317" jamLengthInMetersSum="1860.67" meanHaltingDuration="11.57" maxHaltingDuration="22.00" haltingDurationSum="347.00" meanIntervalHaltingDuration="11.57" maxIntervalHaltingDuration="22.00" intervalHaltingDurationSum="347.00" startedHalts="30.00" meanVehicleNumber="0.72" maxVehicleNumber="2" />
   <interval begin="1800.00" end="2700.00" id="N_1" sampledSeconds="56.18" nVehEntered="10" nVehLeft="10" nVehSeen="10" meanSpeed="6.35" meanTimeLoss="4.31" meanOccupancy="1.06" maxOccupancy="19.00" meanMaxJamLengthInVehicles="0.01" meanMaxJamLengthInMeters="0.08" maxJamLengthInVehicles="1" maxJamLengthInMeters="5.70" jamLengthInVehiclesSum="13" jamLengthInMetersSum="74.10" meanHaltingDuration="4.25" maxHaltingDuration="6.00" haltingDurationSum="17.00" meanIntervalHaltingDuration="4.25" maxIntervalHaltingDuration="6.00" intervalHaltingDurationSum="17.00" startedHalts="4.00" meanVehicleNumber="0.07" maxVehicleNumber="1" />
   <interval begin="1800.00" end="2700.00" id="W_0" sampledSeconds="206.27" nVehEntered="16" nVehLeft="16" nVehSeen="16" meanSpeed="2.77" meanTimeLoss="11.27" meanOccupancy="4.11" maxOccupancy="38.00" meanMaxJamLengthInVehicles="0.14" meanMaxJamLengthInMeters="0.82" maxJamLengthInVehicles="1" maxJamLengthInMeters="5.70" jamLengthInVehiclesSum="129" jamLengthInMetersSum="735.30" meanHaltingDuration="15.33" maxHaltingDuration="22.00" haltingDurationSum="138.00" meanIntervalHaltingDuration="15.33" maxIntervalHaltingDuration="22.00" intervalHaltingDurationSum="138.00" startedHalts="9.00" meanVehicleNumber="0.25" maxVehicleNumber="2" />
   <interval begin="1800.00" end="2700.00" id="W_1" sampledSeconds="0.00" nVehEntered="0" nVehLeft="0" nVehSeen="0" meanSpeed="-1.00" meanTimeLoss="-1.00" meanOccupancy="0.00" maxOccupancy="0.00" meanMaxJamLengthInVehicles="0.00" meanMaxJamLengthInMeters="0.00" maxJamLengthInVehicles="0" maxJamLengthInMeters="0.00" jamLengthInVehiclesSum="0" jamLengthInMetersSum="0.00" meanHaltingDuration="0.00" maxHaltingDuration="0.00" haltingDurationSum="0.00" meanIntervalHaltingDuration="0.00" maxIntervalHaltingDuration="0.00" intervalHaltingDurationSum="0.00" startedHalts="0.00" meanVehicleNumber="0.00" maxVehicleNumber="0" />
   <interval begin="1800.00" end="2700.00" id="S_0" sampledSeconds="156.25" nVehEntered="16" nVehLeft="16" nVehSeen="16" meanSpeed="3.66" meanTimeLoss="8.08" meanOccupancy="3.07" maxOccupancy="19.00" meanMaxJamLengthInVehicles="0.10" meanMaxJamLengthInMeters="0.54" maxJamLengthInVehicles="1" maxJamLengthInMeters="5.70" jamLengthInVehiclesSum="86" jamLengthInMetersSum="487.53" meanHaltingDuration="11.75" maxHaltingDuration="22.00" haltingDurationSum="94.00" meanIntervalHaltingDuration="11.75" maxIntervalHaltingDuration="22.00" intervalHaltingDurationSum="94.00" startedHalts="8.00" meanVehicleNumber="0.19" maxVehicleNumber="1" />
   <interval begin="1800.00" end="2700.00" id="S_1" sampledSeconds="0.00" nVehEntered="0" nVehLeft="0" nVehSeen="0" meanSpeed="-1.00" meanTimeLoss="-1.00" meanOccupancy="0.00" maxOccupancy="0.00" meanMaxJamLengthInVehicles="0.00" meanMaxJamLengthInMeters="0.00" maxJamLengthInVehicles="0" maxJamLengthInMeters="0.00" jamLengthInVehiclesSum="0" jamLengthInMetersSum="0.00" meanHaltingDuration="0.00" maxHaltingDuration="0.00" haltingDurationSum="0.00" meanIntervalHaltingDuration="0.00" maxIntervalHaltingDuration="0.00" intervalHaltingDurationSum="0.00" startedHalts="0.00" meanVehicleNumber="0.00" maxVehicleNumber="0" />
   <interval begin="1800.00" end="2700.00" id="E_0" sampledSeconds="264.37" nVehEntered="31" nVehLeft="30" nVehSeen="31" meanSpeed="4.13" meanTimeLoss="6.93" meanOccupancy="5.04" maxOccupancy="19.00" meanMaxJamLengthInVehicles="0.11" meanMaxJamLengthInMeters="0.61" maxJamLengthInVehicles="1" maxJamLengthInMeters="5.70" jamLengthInVehiclesSum="98" jamLengthInMetersSum="553.20" meanHaltingDuration="5.45" maxHaltingDuration="10.00" haltingDurationSum="120.00" meanIntervalHaltingDuration="5.45" maxIntervalHaltingDuration="10.00" intervalHaltingDurationSum="120.00" startedHalts="22.00" meanVehicleNumber="0.33" maxVehicleNumber="1" />
   <interval begin="1800.00" end="2700.00" id="E_1" sampledSeconds="19.03" nVehEntered="15" nVehLeft="15" nVehSeen="15" meanSpeed="28.14" meanTimeLoss="0.03" meanOccupancy="0.33" maxOccupancy="19.00" meanMaxJamLengthInVehicles="0.00" meanMaxJamLengthInMeters="0.00" maxJamLengthInVehicles="0" maxJamLengthInMeters="0.00" jamLengthInVehiclesSum="0" jamLengthInMetersSum="0.00" meanHaltingDuration="0.00" maxHaltingDuration="0.00" haltingDurationSum="0.00" meanIntervalHaltingDuration="0.00" maxIntervalHaltingDuration="0.00" intervalHaltingDurationSum="0.00" startedHalts="0.00" meanVehicleNumber="0.04" maxVehicleNumber="1" />
   <interval begin="2700.00" end="3600.00" id="N_0" sampledSeconds="708.59" nVehEntered="54" nVehLeft="53" nVehSeen="54" meanSpeed="2.71" meanTimeLoss="11.46" meanOccupancy="14.12" maxOccupancy="38.00" meanMaxJamLengthInVehicles="0.47" meanMaxJamLengthInMeters="2.78" maxJamLengthInVehicles="2" maxJamLengthInMeters="14.02" jamLengthInVehiclesSum="420" jamLengthInMetersSum="2503.13" meanHaltingDuration="12.35" maxHaltingDuration="23.00" haltingDurationSum="457.00" meanIntervalHaltingDuration="12.35" maxIntervalHaltingDuration="23.00" intervalHaltingDurationSum="457.00" startedHalts="37.00" meanVehicleNumber="0.84" maxVehicleNumber="2" />
   <interval begin="2700.00" end="3600.00" id="N_1" sampledSeconds="95.18" nVehEntered="16" nVehLeft="15" nVehSeen="16" meanSpeed="5.94" meanTimeLoss="4.59" meanOccupancy="1.78" maxOccupancy="19.00" meanMaxJamLengthInVehicles="0.03" meanMaxJamLengthInMeters="0.15" maxJamLengthInVehicles="1" maxJamLengthInMeters="5.70" jamLengthInVehiclesSum="24" jamLengthInMetersSum="136.80" meanHaltingDuration="3.67" maxHaltingDuration="7.00" haltingDurationSum="33.00" meanIntervalHaltingDuration="3.67" maxIntervalHaltingDuration="7.00" intervalHaltingDurationSum="33.00" startedHalts="9.00" meanVehicleNumber="0.12" maxVehicleNumber="1" />
   <interval begin="2700.00" end="3600.00" id="W_0" sampledSeconds="619.73" nVehEntered="49" nVehLeft="49" nVehSeen="49" meanSpeed="2.78" meanTimeLoss="10.94" meanOccupancy="12.33" maxOccupancy="38.00" meanMaxJamLengthInVehicles="0.40" meanMaxJamLengthInMeters="2.38" maxJamLengthInVehicles="2" maxJamLengthInMeters="13.96" jamLengthInVehiclesSum="363" jamLengthInMetersSum="2145.47" meanHaltingDuration="12.71" maxHaltingDuration="23.00" haltingDurationSum="394.00" meanIntervalHaltingDuration="12.71" maxIntervalHaltingDuration="23.00" intervalHaltingDurationSum="394.00" startedHalts="31.00" meanVehicleNumber="0.74" maxVehicleNumber="2" />
   <interval begin="2700.00" end="3600.00" id="W_1" sampledSeconds="131.67" nVehEntered="22" nVehLeft="22" nVehSeen="22" meanSpeed="5.91" meanTimeLoss="4.74" meanOccupancy="2.54" maxOccupancy="38.00" meanMaxJamLengthInVehicles="0.04" meanMaxJamLengthInMeters="0.25" maxJamLengthInVehicles="1" maxJamLengthInMeters="5.70" jamLengthInVehiclesSum="40" jamLengthInMetersSum="228.00" meanHaltingDuration="5.44" maxHaltingDuration="11.00" haltingDurationSum="49.00" meanIntervalHaltingDuration="5.44" maxIntervalHaltingDuration="11.00" intervalHaltingDurationSum="49.00" startedHalts="9.00" meanVehicleNumber="0.17" maxVehicleNumber="2" />
   <interval begin="2700.00" end="3600.00" id="S_0" sampledSeconds="318.96" nVehEntered="32" nVehLeft="31" nVehSeen="32" meanSpeed="3.56" meanTimeLoss="8.23" meanOccupancy="6.27" maxOccupancy="19.00" meanMaxJamLengthInVehicles="0.17" meanMaxJamLengthInMeters="0.96" maxJamLengthInVehicles="1" maxJamLengthInMeters="5.70" jamLengthInVehiclesSum="152" jamLengthInMetersSum="863.70" meanHaltingDuration="7.61" maxHaltingDuration="13.00" haltingDurationSum="175.00" meanIntervalHaltingDuration="7.61" maxIntervalHaltingDuration="13.00" intervalHaltingDurationSum="175.00" startedHalts="23.00" meanVehicleNumber="0.39" maxVehicleNumber="1" />
   <interval begin="2700.00" end="3600.00" id="S_1" sampledSeconds="22.87" nVehEntered="13" nVehLeft="13" nVehSeen="13" meanSpeed="20.29" meanTimeLoss="0.20" meanOccupancy="0.43" maxOccupancy="19.00" meanMaxJamLengthInVehicles="0.00" meanMaxJamLengthInMeters="0.00" maxJamLengthInVehicles="0" maxJamLengthInMeters="0.00" jamLengthInVehiclesSum="0" jamLengthInMetersSum="0.00" meanHaltingDuration="0.00" maxHaltingDuration="0.00" haltingDurationSum="0.00" meanIntervalHaltingDuration="0.00" maxIntervalHaltingDuration="0.00" intervalHaltingDurationSum="0.00" startedHalts="0.00" meanVehicleNumber="0.04" maxVehicleNumber="1" />
   <interval begin="2700.00" end="3600.00" id="E_0" sampledSeconds="582.97" nVehEntered="46" nVehLeft="46" nVehSeen="47" meanSpeed="2.63" meanTimeLoss="10.72" meanOccupancy="11.50" maxOccupancy="38.00" meanMaxJamLengthInVehicles="0.38" meanMaxJamLengthInMeters="2.19" maxJamLengthInVehicles="2" maxJamLengthInMeters="14.10" jamLengthInVehiclesSum="340" jamLengthInMetersSum="1974.54" meanHaltingDuration="12.72" maxHaltingDuration="20.00" haltingDurationSum="369.00" meanIntervalHaltingDuration="12.72" maxIntervalHaltingDuration="20.00" intervalHaltingDurationSum="369.00" startedHalts="29.00" meanVehicleNumber="0.69" maxVehicleNumber="2" />
   <interval begin="2700.00" end="3600.00" id="E_1" sampledSeconds="244.10" nVehEntered="44" nVehLeft="44" nVehSeen="44" meanSpeed="6.28" meanTimeLoss="4.29" meanOccupancy="4.74" maxOccupancy="38.00" meanMaxJamLengthInVehicles="0.09" meanMaxJamLengthInMeters="0.49" maxJamLengthInVehicles="1" maxJamLengthInMeters="5.70" jamLengthInVehiclesSum="78" jamLengthInMetersSum="443.27" meanHaltingDuration="5.47" maxHaltingDuration="10.00" haltingDurationSum="93.00" meanIntervalHaltingDuration="5.47" maxIntervalHaltingDuration="10.00" intervalHaltingDurationSum="93.00" startedHalts="18.00" meanVehicleNumber="0.32" maxVehicleNumber="2" />
   <interval begin="3600.00" end="4500.00" id="N_0" sampledSeconds="565.48" nVehEntered="50" nVehLeft="51" nVehSeen="51" meanSpeed="3.17" meanTimeLoss="9.34" meanOccupancy="11.12" maxOccupancy="38.00" meanMaxJamLengthInVehicles="0.35" meanMaxJamLengthInMeters="2.03" maxJamLengthInVehicles="2" maxJamLengthInMeters="13.95" jamLengthInVehiclesSum="312" jamLengthInMetersSum="1828.58" meanHaltingDuration="12.21" maxHaltingDuration="20.00" haltingDurationSum="354.00" meanIntervalHaltingDuration="11.72" maxIntervalHaltingDuration="20.00" intervalHaltingDurationSum="340.00" startedHalts="28.00" meanVehicleNumber="0.68" maxVehicleNumber="2" />
   <interval begin="3600.00" end="4500.00" id="N_1" sampledSeconds="65.49" nVehEntered="13" nVehLeft="14" nVehSeen="14" meanSpeed="7.18" meanTimeLoss="3.39" meanOccupancy="1.18" maxOccupancy="19.00" meanMaxJamLengthInVehicles="0.01" meanMaxJamLengthInMeters="0.08" maxJamLengthInVehicles="1" maxJamLengthInMeters="5.70" jamLengthInVehiclesSum="12" jamLengthInMetersSum="68.40" meanHaltingDuration="3.60" maxHaltingDuration="6.00" haltingDurationSum="18.00" meanIntervalHaltingDuration="3.20" maxIntervalHaltingDuration="6.00" intervalHaltingDurationSum="16.00" startedHalts="4.00" meanVehicleNumber="0.09" maxVehicleNumber="1" />
   <interval begin="3600.00" end="4500.00" id="W_0" sampledSeconds="750.90" nVehEntered="51" nVehLeft="50" nVehSeen="51" meanSpeed="2.42" meanTimeLoss="12.89" meanOccupancy="15.09" maxOccupancy="57.00" meanMaxJamLengthInVehicles="0.52" meanMaxJamLengthInMeters="3.19" maxJamLengthInVehicles="3" maxJamLengthInMeters="22.13" jamLengthInVehiclesSum="464" jamLengthInMetersSum="2866.97" meanHaltingDuration="13.54" maxHaltingDuration="24.00" haltingDurationSum="501.00" meanIntervalHaltingDuration="13.54" maxIntervalHaltingDuration="24.00" intervalHaltingDurationSum="501.00" startedHalts="37.00" meanVehicleNumber="0.89" maxVehicleNumber="3" />
   <interval begin="3600.00" end="4500.00" id="W_1" sampledSeconds="208.87" nVehEntered="41" nVehLeft="40" nVehSeen="41" meanSpeed="6.93" meanTimeLoss="3.81" meanOccupancy="4.04" maxOccupancy="38.00" meanMaxJamLengthInVehicles="0.07" meanMaxJamLengthInMeters="0.39" maxJamLengthInVehicles="1" maxJamLengthInMeters="5.70" jamLengthInVehiclesSum="61" jamLengthInMetersSum="347.70" meanHaltingDuration="5.36" maxHaltingDuration="11.00" haltingDurationSum="75.00" meanIntervalHaltingDuration="5.36" maxIntervalHaltingDuration="11.00" intervalHaltingDurationSum="75.00" startedHalts="14.00" meanVehicleNumber="0.27" maxVehicleNumber="2" />
   <interval begin="3600.00" end="4500.00" id="S_0" sampledSeconds="591.02" nVehEntered="51" nVehLeft="52" nVehSeen="52" meanSpeed="2.77" meanTimeLoss="9.74" meanOccupancy="11.74" maxOccupancy="46.05" meanMaxJamLengthInVehicles="0.40" meanMaxJamLengthInMeters="2.32" maxJamLengthInVehicles="2" maxJamLengthInMeters="13.97" jamLengthInVehiclesSum="359" jamLengthInMetersSum="2085.20" meanHaltingDuration="13.17" maxHaltingDuration="24.00" haltingDurationSum="395.00" meanIntervalHaltingDuration="12.93" maxIntervalHaltingDuration="24.00" intervalHaltingDurationSum="388.00" startedHalts="29.00" meanVehicleNumber="0.71" maxVehicleNumber="3" />
   <interval begin="3600.00" end="4500.00" id="S_1" sampledSeconds="210.41" nVehEntered="30" nVehLeft="29" nVehSeen="30" meanSpeed="4.60" meanTimeLoss="5.62" meanOccupancy="4.12" maxOccupancy="19.00" meanMaxJamLengthInVehicles="0.09" meanMaxJamLengthInMeters="0.50" maxJamLengthInVehicles="1" maxJamLengthInMeters="5.70" jamLengthInVehiclesSum="79" jamLengthInMetersSum="450.30" meanHaltingDuration="5.33" maxHaltingDuration="10.00" haltingDurationSum="80.00" meanIntervalHaltingDuration="5.33" maxIntervalHaltingDuration="10.00" intervalHaltingDurationSum="80.00" startedHalts="19.00" meanVehicleNumber="0.26" maxVehicleNumber="1" />
   <interval begin="3600.00" end="4500.00" id="E_0" sampledSeconds="492.57" nVehEntered="38" nVehLeft="38" nVehSeen="39" meanSpeed="2.45" meanTimeLoss="11.19" meanOccupancy="9.70" maxOccupancy="38.00" meanMaxJamLengthInVehicles="0.34" meanMaxJamLengthInMeters="1.96" maxJamLengthInVehicles="2" maxJamLengthInMeters="13.92" jamLengthInVehiclesSum="307" jamLengthInMetersSum="1765.57" meanHaltingDuration="12.81" maxHaltingDuration="22.00" haltingDurationSum="333.00" meanIntervalHaltingDuration="12.81" maxIntervalHaltingDuration="22.00" intervalHaltingDurationSum="333.00" startedHalts="26.00" meanVehicleNumber="0.59" maxVehicleNumber="2" />
   <interval begin="3600.00" end="4500.00" id="E_1" sampledSeconds="59.82" nVehEntered="21" nVehLeft="21" nVehSeen="21" meanSpeed="11.16" meanTimeLoss="1.76" meanOccupancy="1.18" maxOccupancy="19.00" meanMaxJamLengthInVehicles="0.01" meanMaxJamLengthInMeters="0.04" maxJamLengthInVehicles="1" maxJamLengthInMeters="5.70" jamLengthInVehiclesSum="6" jamLengthInMetersSum="32.84" meanHaltingDuration="3.00" maxHaltingDuration="5.00" haltingDurationSum="9.00" meanIntervalHaltingDuration="3.00" maxIntervalHaltingDuration="5.00" intervalHaltingDurationSum="9.00" startedHalts="4.00" meanVehicleNumber="0.09" maxVehicleNumber="1" />
   <interval begin="4500.00" end="5400.00" id="N_0" sampledSeconds="766.13" nVehEntered="66" nVehLeft="65" nVehSeen="66" meanSpeed="3.07" meanTimeLoss="9.91" meanOccupancy="15.24" maxOccupancy="57.00" meanMaxJamLengthInVehicles="0.46" meanMaxJamLengthInMeters="2.82" maxJamLengthInVehicles="2" maxJamLengthInMeters="13.99" jamLengthInVehiclesSum="416" jamLengthInMetersSum="2536.69" meanHaltingDuration="11.67" maxHaltingDuration="21.00" haltingDurationSum="455.00" meanIntervalHaltingDuration="11.67" maxIntervalHaltingDuration="21.00" intervalHaltingDurationSum="455.00" startedHalts="39.00" meanVehicleNumber="0.92" maxVehicleNumber="3" />
   <interval begin="4500.00" end="5400.00" id="N_1" sampledSeconds="107.39" nVehEntered="18" nVehLeft="18" nVehSeen="18" meanSpeed="5.98" meanTimeLoss="4.61" meanOccupancy="2.03" maxOccupancy="19.00" meanMaxJamLengthInVehicles="0.04" meanMaxJamLengthInMeters="0.21" maxJamLengthInVehicles="1" maxJamLengthInMeters="5.70" jamLengthInVehiclesSum="33" jamLengthInMetersSum="186.78" meanHaltingDuration="5.12" maxHaltingDuration="10.00" haltingDurationSum="41.00" meanIntervalHaltingDuration="5.12" maxIntervalHaltingDuration="10.00" intervalHaltingDurationSum="41.00" startedHalts="8.00" meanVehicleNumber="0.14" maxVehicleNumber="1" />
   <interval begin="4500.00" end="5400.00" id="W_0" sampledSeconds="807.11" nVehEntered="61" nVehLeft="60" nVehSeen="62" meanSpeed="2.57" meanTimeLoss="11.19" meanOccupancy="16.08" maxOccupancy="57.00" meanMaxJamLengthInVehicles="0.54" meanMaxJamLengthInMeters="3.28" maxJamLengthInVehicles="2" maxJamLengthInMeters="14.96" jamLengthInVehiclesSum="482" jamLengthInMetersSum="2954.29" meanHaltingDuration="13.22" maxHaltingDuration="22.00" haltingDurationSum="529.00" meanIntervalHaltingDuration="13.03" maxIntervalHaltingDuration="22.00" intervalHaltingDurationSum="521.00" startedHalts="39.00" meanVehicleNumber="0.96" maxVehicleNumber="3" />
   <interval begin="4500.00" end="5400.00" id="W_1" sampledSeconds="218.57" nVehEntered="33" nVehLeft="33" nVehSeen="34" meanSpeed="5.21" meanTimeLoss="5.24" meanOccupancy="4.34" maxOccupancy="38.00" meanMaxJamLengthInVehicles="0.09" meanMaxJamLengthInMeters="0.51" maxJamLengthInVehicles="2" maxJamLengthInMeters="14.00" jamLengthInVehiclesSum="81" jamLengthInMetersSum="461.65" meanHaltingDuration="7.00" maxHaltingDuration="13.00" haltingDurationSum="91.00" meanIntervalHaltingDuration="7.00" maxIntervalHaltingDuration="13.00" intervalHaltingDurationSum="91.00" startedHalts="15.00" meanVehicleNumber="0.28" maxVehicleNumber="2" />
   <interval begin="4500.00" end="5400.00" id="S_0" sampledSeconds="593.14" nVehEntered="47" nVehLeft="46" nVehSeen="47" meanSpeed="2.62" meanTimeLoss="10.95" meanOccupancy="11.92" maxOccupancy="54.23" meanMaxJamLengthInVehicles="0.42" meanMaxJamLengthInMeters="2.46" maxJamLengthInVehicles="2" maxJamLengthInMeters="13.98" jamLengthInVehiclesSum="377" jamLengthInMetersSum="2215.23" meanHaltingDuration="15.50" maxHaltingDuration="23.00" haltingDurationSum="403.00" meanIntervalHaltingDuration="15.50" maxIntervalHaltingDuration="23.00" intervalHaltingDurationSum="403.00" startedHalts="26.00" meanVehicleNumber="0.71" maxVehicleNumber="3" />