<?xml version="1.0" encoding="UTF-8"?>

<!-- generated on 2022-03-12 18:02:05 by Eclipse SUMO GUI Version 1.10.0
<configuration xmlns:xsi="http://www.w3.org/2001/XMLSchema-instance" xsi:noNamespaceSchemaLocation="http://sumo.dlr.de/xsd/sumoConfiguration.xsd">

    <input>
        <net-file value="Simulation_Environment\Main%20Route%20Simulation\osm.net.xml"/>
        <route-files value="Simulation_Environment\Main%20Route%20Simulation\cars_SUV.xml,Simulation_Environment\Main%20Route%20Simulation\motorcycles_scooters.xml,Simulation_Environment\Main%20Route%20Simulation\taxi.xml,Simulation_Environment\Main%20Route%20Simulation\buses.xml,Simulation_Environment\Main%20Route%20Simulation\smallTrucks.xml,Simulation_Environment\Main%20Route%20Simulation\largeTrucks.xml,Simulation_Environment\Main%20Route%20Simulation\bicycle_tricycle.xml,Simulation_Environment\Main%20Route%20Simulation\jeepney.xml,Simulation_Environment\Main%20Route%20Simulation\motorela.xml"/>
        <additional-files value="Simulation_Environment\Main%20Route%20Simulation\osm.poly.xml,Simulation_Environment\Main%20Route%20Simulation\osm.det.xml"/>
    </input>

    <output>
        <tripinfo-output value="Data\tripinfo.xml"/>
    </output>

    <processing>
        <ignore-route-errors value="true"/>
    </processing>

    <routing>
        <device.rerouting.adaptation-steps value="18"/>
        <device.rerouting.adaptation-interval value="10"/>
    </routing>

    <report>
        <verbose value="true"/>
        <duration-log.statistics value="true"/>
        <no-step-log value="true"/>
    </report>

    <traci_server>
        <remote-port value="60429"/>
    </traci_server>

    <gui_only>
        <gui-settings-file value="Simulation_Environment\Main%20Route%20Simulation\osm.view.xml"/>
        <start value="true"/>
    </gui_only>

</configuration>
-->

<tripinfos xmlns:xsi="http://www.w3.org/2001/XMLSchema-instance" xsi:noNamespaceSchemaLocation="http://sumo.dlr.de/xsd/tripinfo_file.xsd">
    <tripinfo id="cars_SUV45.0" depart="0.00" departLane="-732022517_0" departPos="5.10" departSpeed="0.00" departDelay="0.00" arrival="28.00" arrivalLane="-785902529_0" arrivalPos="81.89" arrivalSpeed="16.24" duration="28.00" routeLength="231.13" waitingTime="0.00" waitingCount="0" stopTime="0.00" timeLoss="18.30" rerouteNo="0" devices="tripinfo_cars_SUV45.0 routing_cars_SUV45.0" vType="cars_SUV" speedFactor="1.01" vaporized=""/>
    <tripinfo id="motorcycles_scooters45.0" depart="3.00" departLane="-732022517_0" departPos="2.10" departSpeed="0.00" departDelay="3.00" arrival="29.00" arrivalLane="-785902529_0" arrivalPos="81.89" arrivalSpeed="16.73" duration="26.00" routeLength="234.13" waitingTime="0.00" waitingCount="0" stopTime="0.00" timeLoss="15.57" rerouteNo="0" devices="tripinfo_motorcycles_scooters45.0 routing_motorcycles_scooters45.0" vType="motorcycles_scooters" speedFactor="0.94" vaporized=""/>
    <tripinfo id="taxi45.0" depart="6.00" departLane="-732022517_0" departPos="2.10" departSpeed="0.00" departDelay="6.00" arrival="31.00" arrivalLane="-785902529_0" arrivalPos="81.89" arrivalSpeed="18.09" duration="25.00" routeLength="234.13" waitingTime="0.00" waitingCount="0" stopTime="0.00" timeLoss="14.64" rerouteNo="0" devices="tripinfo_taxi45.0 routing_taxi45.0" vType="taxi" speedFactor="0.99" vaporized=""/>
    <tripinfo id="cars_SUV15.0" depart="6.00" departLane="785902529_0" departPos="5.10" departSpeed="0.00" departDelay="6.00" arrival="33.00" arrivalLane="732022517_0" arrivalPos="133.31" arrivalSpeed="17.22" duration="27.00" routeLength="233.96" waitingTime="0.00" waitingCount="0" stopTime="0.00" timeLoss="16.26" rerouteNo="0" devices="tripinfo_cars_SUV15.0 routing_cars_SUV15.0" vType="cars_SUV" speedFactor="0.94" vaporized=""/>
    <tripinfo id="motorcycles_scooters15.0" depart="12.00" departLane="785902529_0" departPos="2.10" departSpeed="0.00" departDelay="12.00" arrival="37.00" arrivalLane="732022517_0" arrivalPos="133.31" arrivalSpeed="18.42" duration="25.00" routeLength="236.96" waitingTime="0.00" waitingCount="0" stopTime="0.00" timeLoss="13.67" rerouteNo="0" devices="tripinfo_motorcycles_scooters15.0 routing_motorcycles_scooters15.0" vType="motorcycles_scooters" speedFactor="0.89" vaporized=""/>
    <tripinfo id="cars_SUV0.0" depart="0.00" departLane="785902529_0" departPos="5.10" departSpeed="0.00" departDelay="0.00" arrival="49.00" arrivalLane="-785902540#1_0" arrivalPos="564.51" arrivalSpeed="27.29" duration="49.00" routeLength="655.44" waitingTime="0.00" waitingCount="0" stopTime="0.00" timeLoss="25.29" rerouteNo="0" devices="tripinfo_cars_SUV0.0 routing_cars_SUV0.0" vType="cars_SUV" speedFactor="1.06" vaporized=""/>
    <tripinfo id="smallTrucks45.0" depart="20.00" departLane="-732022517_0" departPos="7.10" departSpeed="0.00" departDelay="20.00" arrival="50.00" arrivalLane="-785902529_1" arrivalPos="81.89" arrivalSpeed="15.46" duration="30.00" routeLength="229.13" waitingTime="0.00" waitingCount="0" stopTime="0.00" timeLoss="20.27" rerouteNo="0" devices="tripinfo_smallTrucks45.0 routing_smallTrucks45.0" vType="smallTrucks" speedFactor="0.98" vaporized=""/>
    <tripinfo id="cars_SUV90.0" depart="0.00" departLane="-785902540#2_0" departPos="5.10" departSpeed="0.00" departDelay="0.00" arrival="54.00" arrivalLane="-785902529_0" arrivalPos="81.89" arrivalSpeed="10.51" duration="54.00" routeLength="411.02" waitingTime="1.00" waitingCount="1" stopTime="0.00" timeLoss="38.25" rerouteNo="0" devices="tripinfo_cars_SUV90.0 routing_cars_SUV90.0" vType="cars_SUV" speedFactor="1.03" vaporized=""/>
    <tripinfo id="motorcycles_scooters0.0" depart="9.00" departLane="785902529_0" departPos="2.10" departSpeed="0.00" departDelay="9.00" arrival="54.00" arrivalLane="-785902540#1_0" arrivalPos="564.51" arrivalSpeed="28.98" duration="45.00" routeLength="658.44" waitingTime="0.00" waitingCount="0" stopTime="0.00" timeLoss="21.45" rerouteNo="0" devices="tripinfo_motorcycles_scooters0.0 routing_motorcycles_scooters0.0" vType="motorcycles_scooters" speedFactor="1.05" vaporized=""/>
    <tripinfo id="taxi15.0" depart="17.00" departLane="785902529_0" departPos="2.10" departSpeed="0.00" departDelay="17.00" arrival="57.00" arrivalLane="732022517_0" arrivalPos="133.31" arrivalSpeed="15.79" duration="40.00" routeLength="236.96" waitingTime="2.00" waitingCount="1" stopTime="0.00" timeLoss="30.60" rerouteNo="0" devices="tripinfo_taxi15.0 routing_taxi15.0" vType="taxi" speedFactor="1.12" vaporized=""/>
    <tripinfo id="taxi0.0" depart="14.00" departLane="785902529_0" departPos="2.10" departSpeed="0.00" departDelay="14.00" arrival="59.00" arrivalLane="-785902540#1_0" arrivalPos="564.51" arrivalSpeed="28.68" duration="45.00" routeLength="658.44" waitingTime="1.00" waitingCount="1" stopTime="0.00" timeLoss="20.82" rerouteNo="0" devices="tripinfo_taxi0.0 routing_taxi0.0" vType="taxi" speedFactor="1.05" vaporized=""/>
    <tripinfo id="buses45.0" depart="12.00" departLane="-732022517_0" departPos="15.10" departSpeed="0.00" departDelay="12.00" arrival="59.00" arrivalLane="-785902529_0" arrivalPos="81.89" arrivalSpeed="8.03" duration="47.00" routeLength="221.13" waitingTime="0.00" waitingCount="0" stopTime="0.00" timeLoss="38.73" rerouteNo="0" devices="tripinfo_buses45.0 routing_buses45.0" vType="buses" speedFactor="1.16" vaporized=""/>
    <tripinfo id="motorela45.0" depart="42.00" departLane="-732022517_0" departPos="2.10" departSpeed="0.00" departDelay="42.00" arrival="60.00" arrivalLane="-785902529_1" arrivalPos="81.89" arrivalSpeed="25.84" duration="18.00" routeLength="234.13" waitingTime="0.00" waitingCount="0" stopTime="0.00" timeLoss="9.08" rerouteNo="0" devices="tripinfo_motorela45.0 routing_motorela45.0" vType="motorela" speedFactor="1.17" vaporized=""/>
    <tripinfo id="buses15.0" depart="25.00" departLane="785902529_0" departPos="15.10" departSpeed="0.00" departDelay="25.00" arrival="62.00" arrivalLane="732022517_1" arrivalPos="133.31" arrivalSpeed="11.95" duration="37.00" routeLength="223.96" waitingTime="0.00" waitingCount="0" stopTime="0.00" timeLoss="26.53" rerouteNo="0" devices="tripinfo_buses15.0 routing_buses15.0" vType="buses" speedFactor="0.94" vaporized=""/>
    <tripinfo id="motorcycles_scooters90.0" depart="8.00" departLane="-785902540#2_0" departPos="2.10" departSpeed="0.00" departDelay="8.00" arrival="63.00" arrivalLane="-785902529_0" arrivalPos="81.89" arrivalSpeed="11.64" duration="55.00" routeLength="414.02" waitingTime="6.00" waitingCount="1" stopTime="0.00" timeLoss="40.11" rerouteNo="0" devices="tripinfo_motorcycles_scooters90.0 routing_motorcycles_scooters90.0" vType="motorcycles_scooters" speedFactor="1.09" vaporized=""/>
    <tripinfo id="smallTrucks15.0" depart="38.00" departLane="785902529_0" departPos="7.10" departSpeed="0.00" departDelay="38.00" arrival="66.00" arrivalLane="732022517_1" arrivalPos="133.31" arrivalSpeed="16.50" duration="28.00" routeLength="231.96" waitingTime="0.00" waitingCount="0" stopTime="0.00" timeLoss="18.34" rerouteNo="0" devices="tripinfo_smallTrucks15.0 routing_smallTrucks15.0" vType="smallTrucks" speedFactor="1.01" vaporized=""/>
    <tripinfo id="jeepney45.0" depart="36.00" departLane="-732022517_0" departPos="7.10" departSpeed="0.00" departDelay="36.00" arrival="66.00" arrivalLane="-785902529_1" arrivalPos="81.89" arrivalSpeed="15.96" duration="30.00" routeLength="229.13" waitingTime="0.00" waitingCount="0" stopTime="0.00" timeLoss="19.33" rerouteNo="0" devices="tripinfo_jeepney45.0 routing_jeepney45.0" vType="jeepney" speedFactor="0.92" vaporized=""/>
    <tripinfo id="motorela15.0" depart="46.00" departLane="785902529_0" departPos="2.10" departSpeed="0.00" departDelay="46.00" arrival="68.00" arrivalLane="732022517_1" arrivalPos="133.31" arrivalSpeed="18.83" duration="22.00" routeLength="236.96" waitingTime="0.00" waitingCount="0" stopTime="0.00" timeLoss="12.83" rerouteNo="0" devices="tripinfo_motorela15.0 routing_motorela15.0" vType="motorela" speedFactor="1.15" vaporized=""/>
    <tripinfo id="taxi90.0" depart="13.00" departLane="-785902540#2_0" departPos="2.10" departSpeed="0.00" departDelay="13.00" arrival="69.00" arrivalLane="-785902529_0" arrivalPos="81.89" arrivalSpeed="12.34" duration="56.00" routeLength="414.02" waitingTime="4.00" waitingCount="2" stopTime="0.00" timeLoss="37.46" rerouteNo="0" devices="tripinfo_taxi90.0 routing_taxi90.0" vType="taxi" speedFactor="0.88" vaporized=""/>
    <tripinfo id="largeTrucks45.0" depart="28.00" departLane="-732022517_0" departPos="12.10" departSpeed="0.00" departDelay="28.00" arrival="74.00" arrivalLane="-785902529_0" arrivalPos="81.89" arrivalSpeed="8.19" duration="46.00" routeLength="224.13" waitingTime="0.00" waitingCount="0" stopTime="0.00" timeLoss="34.75" rerouteNo="0" devices="tripinfo_largeTrucks45.0 routing_largeTrucks45.0" vType="largeTrucks" speedFactor="0.83" vaporized=""/>
    <tripinfo id="motorela30.0" depart="40.00" departLane="-732022517_0" departPos="2.10" departSpeed="0.00" departDelay="40.00" arrival="82.00" arrivalLane="785902540#2_0" arrivalPos="325.64" arrivalSpeed="27.04" duration="42.00" routeLength="466.83" waitingTime="0.00" waitingCount="0" stopTime="0.00" timeLoss="23.12" rerouteNo="0" devices="tripinfo_motorela30.0 routing_motorela30.0" vType="motorela" speedFactor="1.01" vaporized=""/>
    <tripinfo id="motorcycles_scooters45.1" depart="60.00" departLane="-732022517_0" departPos="2.10" departSpeed="0.00" departDelay="0.00" arrival="85.00" arrivalLane="-785902529_0" arrivalPos="81.89" arrivalSpeed="18.56" duration="25.00" routeLength="234.13" waitingTime="0.00" waitingCount="0" stopTime="0.00" timeLoss="16.04" rerouteNo="0" devices="tripinfo_motorcycles_scooters45.1 routing_motorcycles_scooters45.1" vType="motorcycles_scooters" speedFactor="1.10" vaporized=""/>
    <tripinfo id="smallTrucks0.0" depart="32.00" departLane="785902529_0" departPos="7.10" departSpeed="0.00" departDelay="32.00" arrival="94.00" arrivalLane="-785902540#1_0" arrivalPos="564.51" arrivalSpeed="22.31" duration="62.00" routeLength="653.44" waitingTime="0.00" waitingCount="0" stopTime="0.00" timeLoss="37.75" rerouteNo="0" devices="tripinfo_smallTrucks0.0 routing_smallTrucks0.0" vType="smallTrucks" speedFactor="1.02" vaporized=""/>
    <tripinfo id="motorela0.0" depart="44.00" departLane="785902529_0" departPos="2.10" departSpeed="0.00" departDelay="44.00" arrival="95.00" arrivalLane="-785902540#1_1" arrivalPos="564.51" arrivalSpeed="26.81" duration="51.00" routeLength="658.44" waitingTime="0.00" waitingCount="0" stopTime="0.00" timeLoss="28.00" rerouteNo="0" devices="tripinfo_motorela0.0 routing_motorela0.0" vType="motorela" speedFactor="1.18" vaporized=""/>
    <tripinfo id="bicycle_tricycle0.0" depart="41.00" departLane="785902529_0" departPos="2.10" departSpeed="0.00" departDelay="41.00" arrival="98.00" arrivalLane="-785902540#1_0" arrivalPos="564.51" arrivalSpeed="14.97" duration="57.00" routeLength="658.44" waitingTime="0.00" waitingCount="0" stopTime="0.00" timeLoss="11.59" rerouteNo="0" devices="tripinfo_bicycle_tricycle0.0 routing_bicycle_tricycle0.0" vType="bicycle_tricycle" speedFactor="0.87" vaporized=""/>
    <tripinfo id="motorela45.1" depart="88.00" departLane="-732022517_0" departPos="2.10" departSpeed="0.00" departDelay="0.20" arrival="105.00" arrivalLane="-785902529_0" arrivalPos="81.89" arrivalSpeed="26.38" duration="17.00" routeLength="234.13" waitingTime="0.00" waitingCount="0" stopTime="0.00" timeLoss="6.56" rerouteNo="0" devices="tripinfo_motorela45.1 routing_motorela45.1" vType="motorela" speedFactor="0.96" vaporized=""/>
    <tripinfo id="motorela0.1" depart="82.00" departLane="785902529_0" departPos="2.10" departSpeed="0.00" departDelay="0.18" arrival="118.00" arrivalLane="-785902540#1_0" arrivalPos="564.51" arrivalSpeed="28.16" duration="36.00" routeLength="658.44" waitingTime="0.00" waitingCount="0" stopTime="0.00" timeLoss="12.31" rerouteNo="0" devices="tripinfo_motorela0.1 routing_motorela0.1" vType="motorela" speedFactor="1.03" vaporized=""/>
    <tripinfo id="cars_SUV45.1" depart="103.00" departLane="-732022517_0" departPos="5.10" departSpeed="0.00" departDelay="0.14" arrival="130.00" arrivalLane="-785902529_0" arrivalPos="81.89" arrivalSpeed="16.27" duration="27.00" routeLength="231.13" waitingTime="0.00" waitingCount="0" stopTime="0.00" timeLoss="18.19" rerouteNo="0" devices="tripinfo_cars_SUV45.1 routing_cars_SUV45.1" vType="cars_SUV" speedFactor="1.09" vaporized=""/>
    <tripinfo id="taxi45.1" depart="106.00" departLane="-732022517_0" departPos="2.10" departSpeed="0.00" departDelay="3.14" arrival="132.00" arrivalLane="-785902529_0" arrivalPos="81.89" arrivalSpeed="17.01" duration="26.00" routeLength="234.13" waitingTime="0.00" waitingCount="0" stopTime="0.00" timeLoss="16.27" rerouteNo="0" devices="tripinfo_taxi45.1 routing_taxi45.1" vType="taxi" speedFactor="1.04" vaporized=""/>
    <tripinfo id="motorcycles_scooters45.2" depart="120.00" departLane="-732022517_0" departPos="2.10" departSpeed="0.00" departDelay="0.00" arrival="145.00" arrivalLane="-785902529_0" arrivalPos="81.89" arrivalSpeed="19.00" duration="25.00" routeLength="234.13" waitingTime="0.00" waitingCount="0" stopTime="0.00" timeLoss="15.49" rerouteNo="0" devices="tripinfo_motorcycles_scooters45.2 routing_motorcycles_scooters45.2" vType="motorcycles_scooters" speedFactor="1.09" vaporized=""/>
    <tripinfo id="cars_SUV15.1" depart="134.00" departLane="785902529_0" departPos="5.10" departSpeed="0.00" departDelay="0.67" arrival="161.00" arrivalLane="732022517_0" arrivalPos="133.31" arrivalSpeed="17.01" duration="27.00" routeLength="233.96" waitingTime="0.00" waitingCount="0" stopTime="0.00" timeLoss="15.29" rerouteNo="0" devices="tripinfo_cars_SUV15.1 routing_cars_SUV15.1" vType="cars_SUV" speedFactor="0.85" vaporized=""/>
    <tripinfo id="jeepney90.0" depart="21.00" departLane="-785902540#2_0" departPos="7.10" departSpeed="0.00" departDelay="21.00" arrival="178.00" arrivalLane="-785902529_0" arrivalPos="81.89" arrivalSpeed="10.45" duration="157.00" routeLength="409.02" waitingTime="100.00" waitingCount="1" stopTime="0.00" timeLoss="142.27" rerouteNo="0" devices="tripinfo_jeepney90.0 routing_jeepney90.0" vType="jeepney" speedFactor="1.13" vaporized=""/>
    <tripinfo id="motorela90.0" depart="30.00" departLane="-785902540#2_0" departPos="2.10" departSpeed="0.00" departDelay="30.00" arrival="183.00" arrivalLane="-785902529_0" arrivalPos="81.89" arrivalSpeed="15.77" duration="153.00" routeLength="414.02" waitingTime="103.00" waitingCount="2" stopTime="0.00" timeLoss="137.44" rerouteNo="0" devices="tripinfo_motorela90.0 routing_motorela90.0" vType="motorela" speedFactor="1.02" vaporized=""/>
    <tripinfo id="motorela75.0" depart="20.00" departLane="785902540#0_0" departPos="2.10" departSpeed="0.00" departDelay="20.00" arrival="187.00" arrivalLane="785902540#2_1" arrivalPos="325.64" arrivalSpeed="26.64" duration="167.00" routeLength="911.20" waitingTime="105.00" waitingCount="1" stopTime="0.00" timeLoss="133.23" rerouteNo="0" devices="tripinfo_motorela75.0 routing_motorela75.0" vType="motorela" speedFactor="0.99" vaporized=""/>
    <tripinfo id="taxi75.0" depart="6.00" departLane="785902540#0_0" departPos="2.10" departSpeed="0.00" departDelay="6.00" arrival="190.00" arrivalLane="785902540#2_0" arrivalPos="325.64" arrivalSpeed="22.31" duration="184.00" routeLength="911.20" waitingTime="111.00" waitingCount="1" stopTime="0.00" timeLoss="148.14" rerouteNo="0" devices="tripinfo_taxi75.0 routing_taxi75.0" vType="taxi" speedFactor="0.93" vaporized=""/>
    <tripinfo id="motorela45.2" depart="176.00" departLane="-732022517_0" departPos="2.10" departSpeed="0.00" departDelay="0.39" arrival="193.00" arrivalLane="-785902529_0" arrivalPos="81.89" arrivalSpeed="26.03" duration="17.00" routeLength="234.13" waitingTime="0.00" waitingCount="0" stopTime="0.00" timeLoss="8.02" rerouteNo="0" devices="tripinfo_motorela45.2 routing_motorela45.2" vType="motorela" speedFactor="1.10" vaporized=""/>
    <tripinfo id="cars_SUV75.0" depart="0.00" departLane="785902540#0_0" departPos="5.10" departSpeed="0.00" departDelay="0.00" arrival="194.00" arrivalLane="785902540#2_0" arrivalPos="325.64" arrivalSpeed="20.59" duration="194.00" routeLength="908.20" waitingTime="113.00" waitingCount="1" stopTime="0.00" timeLoss="163.17" rerouteNo="0" devices="tripinfo_cars_SUV75.0 routing_cars_SUV75.0" vType="cars_SUV" speedFactor="1.08" vaporized=""/>
    <tripinfo id="motorcycles_scooters75.0" depart="3.00" departLane="785902540#0_0" departPos="2.10" departSpeed="0.00" departDelay="3.00" arrival="195.00" arrivalLane="785902540#2_0" arrivalPos="325.64" arrivalSpeed="20.95" duration="192.00" routeLength="911.20" waitingTime="113.00" waitingCount="1" stopTime="0.00" timeLoss="153.29" rerouteNo="0" devices="tripinfo_motorcycles_scooters75.0 routing_motorcycles_scooters75.0" vType="motorcycles_scooters" speedFactor="0.86" vaporized=""/>
    <tripinfo id="smallTrucks75.0" depart="11.00" departLane="785902540#0_0" departPos="7.10" departSpeed="0.00" departDelay="11.00" arrival="196.00" arrivalLane="785902540#2_1" arrivalPos="325.64" arrivalSpeed="21.48" duration="185.00" routeLength="906.20" waitingTime="104.00" waitingCount="1" stopTime="0.00" timeLoss="147.70" rerouteNo="0" devices="tripinfo_smallTrucks75.0 routing_smallTrucks75.0" vType="smallTrucks" speedFactor="0.89" vaporized=""/>
    <tripinfo id="taxi105.0" depart="16.00" departLane="-785902540#2_0" departPos="2.10" departSpeed="0.00" departDelay="16.00" arrival="199.00" arrivalLane="-785902540#1_0" arrivalPos="564.51" arrivalSpeed="25.85" duration="183.00" routeLength="911.09" waitingTime="104.00" waitingCount="2" stopTime="0.00" timeLoss="147.68" rerouteNo="0" devices="tripinfo_taxi105.0 routing_taxi105.0" vType="taxi" speedFactor="0.94" vaporized=""/>
    <tripinfo id="motorcycles_scooters105.0" depart="11.00" departLane="-785902540#2_0" departPos="2.10" departSpeed="0.00" departDelay="11.00" arrival="202.00" arrivalLane="-785902540#1_1" arrivalPos="564.51" arrivalSpeed="28.05" duration="191.00" routeLength="911.09" waitingTime="117.00" waitingCount="1" stopTime="0.00" timeLoss="158.78" rerouteNo="0" devices="tripinfo_motorcycles_scooters105.0 routing_motorcycles_scooters105.0" vType="motorcycles_scooters" speedFactor="1.03" vaporized=""/>
    <tripinfo id="motorela105.0" depart="32.00" departLane="-785902540#2_0" departPos="2.10" departSpeed="0.00" departDelay="32.00" arrival="204.00" arrivalLane="-785902540#1_1" arrivalPos="564.51" arrivalSpeed="26.35" duration="172.00" routeLength="911.09" waitingTime="103.00" waitingCount="1" stopTime="0.00" timeLoss="137.43" rerouteNo="0" devices="tripinfo_motorela105.0 routing_motorela105.0" vType="motorela" speedFactor="0.97" vaporized=""/>
    <tripinfo id="cars_SUV105.0" depart="5.00" departLane="-785902540#2_0" departPos="5.10" departSpeed="0.00" departDelay="5.00" arrival="205.00" arrivalLane="-785902540#1_0" arrivalPos="564.51" arrivalSpeed="22.93" duration="200.00" routeLength="908.09" waitingTime="121.00" waitingCount="1" stopTime="0.00" timeLoss="160.43" rerouteNo="0" devices="tripinfo_cars_SUV105.0 routing_cars_SUV105.0" vType="cars_SUV" speedFactor="0.83" vaporized=""/>
    <tripinfo id="motorela0.2" depart="164.00" departLane="785902529_0" departPos="2.10" departSpeed="0.00" departDelay="0.36" arrival="205.00" arrivalLane="-785902540#1_1" arrivalPos="564.51" arrivalSpeed="27.96" duration="41.00" routeLength="658.44" waitingTime="0.00" waitingCount="0" stopTime="0.00" timeLoss="16.37" rerouteNo="0" devices="tripinfo_motorela0.2 routing_motorela0.2" vType="motorela" speedFactor="1.02" vaporized=""/>
    <tripinfo id="motorcycles_scooters45.3" depart="180.00" departLane="-732022517_0" departPos="2.10" departSpeed="0.00" departDelay="0.00" arrival="208.00" arrivalLane="-785902529_0" arrivalPos="81.89" arrivalSpeed="14.72" duration="28.00" routeLength="234.13" waitingTime="0.00" waitingCount="0" stopTime="0.00" timeLoss="18.20" rerouteNo="0" devices="tripinfo_motorcycles_scooters45.3 routing_motorcycles_scooters45.3" vType="motorcycles_scooters" speedFactor="1.00" vaporized=""/>
    <tripinfo id="motorcycles_scooters15.1" depart="200.00" departLane="785902529_0" departPos="2.10" departSpeed="0.00" departDelay="0.00" arrival="224.00" arrivalLane="732022517_1" arrivalPos="133.31" arrivalSpeed="18.62" duration="24.00" routeLength="236.96" waitingTime="0.00" waitingCount="0" stopTime="0.00" timeLoss="15.21" rerouteNo="0" devices="tripinfo_motorcycles_scooters15.1 routing_motorcycles_scooters15.1" vType="motorcycles_scooters" speedFactor="1.14" vaporized=""/>
    <tripinfo id="cars_SUV45.2" depart="206.00" departLane="-732022517_0" departPos="5.10" departSpeed="0.00" departDelay="0.29" arrival="234.00" arrivalLane="-785902529_0" arrivalPos="81.89" arrivalSpeed="16.43" duration="28.00" routeLength="231.13" waitingTime="0.00" waitingCount="0" stopTime="0.00" timeLoss="18.46" rerouteNo="0" devices="tripinfo_cars_SUV45.2 routing_cars_SUV45.2" vType="cars_SUV" speedFactor="1.02" vaporized=""/>
    <tripinfo id="motorcycles_scooters0.1" depart="190.00" departLane="785902529_0" departPos="2.10" departSpeed="0.00" departDelay="0.53" arrival="248.00" arrivalLane="-785902540#1_0" arrivalPos="564.51" arrivalSpeed="24.71" duration="58.00" routeLength="658.44" waitingTime="1.00" waitingCount="1" stopTime="0.00" timeLoss="29.88" rerouteNo="0" devices="tripinfo_motorcycles_scooters0.1 routing_motorcycles_scooters0.1" vType="motorcycles_scooters" speedFactor="0.90" vaporized=""/>
    <tripinfo id="taxi45.2" depart="209.00" departLane="-732022517_0" departPos="2.10" departSpeed="0.00" departDelay="3.29" arrival="254.00" arrivalLane="-785902529_0" arrivalPos="81.89" arrivalSpeed="12.30" duration="45.00" routeLength="234.13" waitingTime="8.00" waitingCount="1" stopTime="0.00" timeLoss="34.68" rerouteNo="0" devices="tripinfo_taxi45.2 routing_taxi45.2" vType="taxi" speedFactor="0.97" vaporized=""/>
    <tripinfo id="motorcycles_scooters45.4" depart="240.00" departLane="-732022517_0" departPos="2.10" departSpeed="0.00" departDelay="0.00" arrival="279.00" arrivalLane="-785902529_1" arrivalPos="81.89" arrivalSpeed="12.97" duration="39.00" routeLength="234.13" waitingTime="3.00" waitingCount="1" stopTime="0.00" timeLoss="29.31" rerouteNo="0" devices="tripinfo_motorcycles_scooters45.4 routing_motorcycles_scooters45.4" vType="motorcycles_scooters" speedFactor="1.02" vaporized=""/>
    <tripinfo id="jeepney45.1" depart="225.00" departLane="-732022517_0" departPos="7.10" departSpeed="0.00" departDelay="0.00" arrival="283.00" arrivalLane="-785902529_0" arrivalPos="81.89" arrivalSpeed="10.82" duration="58.00" routeLength="229.13" waitingTime="14.00" waitingCount="2" stopTime="0.00" timeLoss="49.31" rerouteNo="0" devices="tripinfo_jeepney45.1 routing_jeepney45.1" vType="jeepney" speedFactor="1.12" vaporized=""/>
    <tripinfo id="taxi15.1" depart="240.00" departLane="785902529_0" departPos="2.10" departSpeed="0.00" departDelay="0.00" arrival="284.00" arrivalLane="732022517_0" arrivalPos="133.31" arrivalSpeed="14.75" duration="44.00" routeLength="236.96" waitingTime="7.00" waitingCount="1" stopTime="0.00" timeLoss="33.33" rerouteNo="0" devices="tripinfo_taxi15.1 routing_taxi15.1" vType="taxi" speedFactor="0.94" vaporized=""/>
    <tripinfo id="motorela45.3" depart="264.00" departLane="-732022517_0" departPos="2.10" departSpeed="0.00" departDelay="0.59" arrival="285.00" arrivalLane="-785902529_0" arrivalPos="81.89" arrivalSpeed="14.89" duration="21.00" routeLength="234.13" waitingTime="0.00" waitingCount="0" stopTime="0.00" timeLoss="11.48" rerouteNo="0" devices="tripinfo_motorela45.3 routing_motorela45.3" vType="motorela" speedFactor="1.04" vaporized=""/>
    <tripinfo id="cars_SUV15.2" depart="267.00" departLane="785902529_0" departPos="5.10" departSpeed="0.00" departDelay="0.33" arrival="296.00" arrivalLane="732022517_0" arrivalPos="133.31" arrivalSpeed="16.67" duration="29.00" routeLength="233.96" waitingTime="0.00" waitingCount="0" stopTime="0.00" timeLoss="18.74" rerouteNo="0" devices="tripinfo_cars_SUV15.2 routing_cars_SUV15.2" vType="cars_SUV" speedFactor="1.02" vaporized=""/>
    <tripinfo id="motorela0.3" depart="246.00" departLane="785902529_0" departPos="2.10" departSpeed="0.00" departDelay="0.55" arrival="299.00" arrivalLane="-785902540#1_0" arrivalPos="564.51" arrivalSpeed="24.49" duration="53.00" routeLength="658.44" waitingTime="5.00" waitingCount="1" stopTime="0.00" timeLoss="25.00" rerouteNo="0" devices="tripinfo_motorela0.3 routing_motorela0.3" vType="motorela" speedFactor="0.91" vaporized=""/>
    <tripinfo id="cars_SUV0.1" depart="277.00" departLane="785902529_0" departPos="5.10" departSpeed="0.00" departDelay="0.08" arrival="325.00" arrivalLane="-785902540#1_0" arrivalPos="564.51" arrivalSpeed="26.87" duration="48.00" routeLength="655.44" waitingTime="0.00" waitingCount="0" stopTime="0.00" timeLoss="23.06" rerouteNo="0" devices="tripinfo_cars_SUV0.1 routing_cars_SUV0.1" vType="cars_SUV" speedFactor="0.97" vaporized=""/>
    <tripinfo id="motorcycles_scooters45.5" depart="300.00" departLane="-732022517_0" departPos="2.10" departSpeed="0.00" departDelay="0.00" arrival="325.00" arrivalLane="-785902529_0" arrivalPos="81.89" arrivalSpeed="18.60" duration="25.00" routeLength="234.13" waitingTime="0.00" waitingCount="0" stopTime="0.00" timeLoss="14.42" rerouteNo="0" devices="tripinfo_motorcycles_scooters45.5 routing_motorcycles_scooters45.5" vType="motorcycles_scooters" speedFactor="0.94" vaporized=""/>
    <tripinfo id="cars_SUV45.3" depart="309.00" departLane="-732022517_0" departPos="5.10" departSpeed="0.00" departDelay="0.43" arrival="337.00" arrivalLane="-785902529_0" arrivalPos="81.89" arrivalSpeed="16.86" duration="28.00" routeLength="231.13" waitingTime="0.00" waitingCount="0" stopTime="0.00" timeLoss="17.51" rerouteNo="0" devices="tripinfo_cars_SUV45.3 routing_cars_SUV45.3" vType="cars_SUV" speedFactor="0.96" vaporized=""/>
    <tripinfo id="taxi45.3" depart="312.00" departLane="-732022517_0" departPos="2.10" departSpeed="0.00" departDelay="3.43" arrival="338.00" arrivalLane="-785902529_0" arrivalPos="81.89" arrivalSpeed="17.03" duration="26.00" routeLength="234.13" waitingTime="0.00" waitingCount="0" stopTime="0.00" timeLoss="15.88" rerouteNo="0" devices="tripinfo_taxi45.3 routing_taxi45.3" vType="taxi" speedFactor="0.98" vaporized=""/>
    <tripinfo id="motorela0.4" depart="328.00" departLane="785902529_0" departPos="2.10" departSpeed="0.00" departDelay="0.73" arrival="372.00" arrivalLane="-785902540#1_0" arrivalPos="564.51" arrivalSpeed="27.69" duration="44.00" routeLength="658.44" waitingTime="1.00" waitingCount="1" stopTime="0.00" timeLoss="18.93" rerouteNo="0" devices="tripinfo_motorela0.4 routing_motorela0.4" vType="motorela" speedFactor="1.01" vaporized=""/>
    <tripinfo id="motorela45.4" depart="352.00" departLane="-732022517_0" departPos="2.10" departSpeed="0.00" departDelay="0.78" arrival="377.00" arrivalLane="-785902529_0" arrivalPos="81.89" arrivalSpeed="19.84" duration="25.00" routeLength="234.13" waitingTime="0.00" waitingCount="0" stopTime="0.00" timeLoss="15.50" rerouteNo="0" devices="tripinfo_motorela45.4 routing_motorela45.4" vType="motorela" speedFactor="1.09" vaporized=""/>
    <tripinfo id="motorcycles_scooters45.6" depart="360.00" departLane="-732022517_0" departPos="2.10" departSpeed="0.00" departDelay="0.00" arrival="393.00" arrivalLane="-785902529_0" arrivalPos="81.89" arrivalSpeed="12.96" duration="33.00" routeLength="234.13" waitingTime="0.00" waitingCount="0" stopTime="0.00" timeLoss="23.27" rerouteNo="0" devices="tripinfo_motorcycles_scooters45.6 routing_motorcycles_scooters45.6" vType="motorcycles_scooters" speedFactor="1.03" vaporized=""/>