<?xml version="1.0" encoding="UTF-8"?>

<!-- generated on 2022-03-16 16:01:18 by Eclipse SUMO sumo Version 1.10.0
<configuration xmlns:xsi="http://www.w3.org/2001/XMLSchema-instance" xsi:noNamespaceSchemaLocation="http://sumo.dlr.de/xsd/sumoConfiguration.xsd">

    <input>
        <net-file value="Simulation_Environment\Main%20Route%20Simulation\osm.net.xml"/>
        <route-files value="Simulation_Environment\Main%20Route%20Simulation\cars_SUV.xml,Simulation_Environment\Main%20Route%20Simulation\motorcycles_scooters.xml,Simulation_Environment\Main%20Route%20Simulation\taxi.xml,Simulation_Environment\Main%20Route%20Simulation\buses.xml,Simulation_Environment\Main%20Route%20Simulation\smallTrucks.xml,Simulation_Environment\Main%20Route%20Simulation\largeTrucks.xml,Simulation_Environment\Main%20Route%20Simulation\bicycle_tricycle.xml,Simulation_Environment\Main%20Route%20Simulation\jeepney.xml,Simulation_Environment\Main%20Route%20Simulation\motorela.xml"/>
        <additional-files value="Simulation_Environment\Main%20Route%20Simulation\osm.poly.xml,Simulation_Environment\Main%20Route%20Simulation\osm.det.xml"/>
    </input>

    <output>
        <tripinfo-output value="Data\tripinfo.xml"/>
    </output>

    <processing>
        <ignore-route-errors value="true"/>
    </processing>

    <routing>
        <device.rerouting.adaptation-steps value="18"/>
        <device.rerouting.adaptation-interval value="10"/>
    </routing>

    <report>
        <verbose value="true"/>
        <duration-log.statistics value="true"/>
        <no-step-log value="true"/>
    </report>

    <traci_server>
        <remote-port value="56298"/>
    </traci_server>

    <gui_only>
        <gui-settings-file value="Simulation_Environment\Main%20Route%20Simulation\osm.view.xml"/>
        <start value="true"/>
    </gui_only>

</configuration>
-->

<tripinfos xmlns:xsi="http://www.w3.org/2001/XMLSchema-instance" xsi:noNamespaceSchemaLocation="http://sumo.dlr.de/xsd/tripinfo_file.xsd">
    <tripinfo id="cars_SUV90.0" depart="0.00" departLane="-785902540#2_0" departPos="5.10" departSpeed="0.00" departDelay="0.00" arrival="45.00" arrivalLane="-785902529_0" arrivalPos="81.89" arrivalSpeed="11.79" duration="45.00" routeLength="411.02" waitingTime="0.00" waitingCount="0" stopTime="0.00" timeLoss="29.55" rerouteNo="0" devices="tripinfo_cars_SUV90.0 routing_cars_SUV90.0" vType="cars_SUV" speedFactor="1.03" vaporized=""/>
    <tripinfo id="motorcycles_scooters90.0" depart="8.00" departLane="-785902540#2_0" departPos="2.10" departSpeed="0.00" departDelay="8.00" arrival="49.00" arrivalLane="-785902529_0" arrivalPos="81.89" arrivalSpeed="12.28" duration="41.00" routeLength="414.02" waitingTime="0.00" waitingCount="0" stopTime="0.00" timeLoss="25.62" rerouteNo="0" devices="tripinfo_motorcycles_scooters90.0 routing_motorcycles_scooters90.0" vType="motorcycles_scooters" speedFactor="1.09" vaporized=""/>
    <tripinfo id="cars_SUV75.0" depart="0.00" departLane="785902540#0_0" departPos="5.10" departSpeed="0.00" departDelay="0.00" arrival="55.00" arrivalLane="785902540#2_0" arrivalPos="325.64" arrivalSpeed="29.84" duration="55.00" routeLength="908.20" waitingTime="0.00" waitingCount="0" stopTime="0.00" timeLoss="24.45" rerouteNo="0" devices="tripinfo_cars_SUV75.0 routing_cars_SUV75.0" vType="cars_SUV" speedFactor="1.08" vaporized=""/>
    <tripinfo id="taxi90.0" depart="13.00" departLane="-785902540#2_0" departPos="2.10" departSpeed="0.00" departDelay="13.00" arrival="56.00" arrivalLane="-785902529_0" arrivalPos="81.89" arrivalSpeed="12.62" duration="43.00" routeLength="414.02" waitingTime="0.00" waitingCount="0" stopTime="0.00" timeLoss="24.84" rerouteNo="0" devices="tripinfo_taxi90.0 routing_taxi90.0" vType="taxi" speedFactor="0.88" vaporized=""/>
    <tripinfo id="motorcycles_scooters75.0" depart="3.00" departLane="785902540#0_0" departPos="2.10" departSpeed="0.00" departDelay="3.00" arrival="59.00" arrivalLane="785902540#2_0" arrivalPos="325.64" arrivalSpeed="23.59" duration="56.00" routeLength="911.20" waitingTime="0.00" waitingCount="0" stopTime="0.00" timeLoss="17.46" rerouteNo="0" devices="tripinfo_motorcycles_scooters75.0 routing_motorcycles_scooters75.0" vType="motorcycles_scooters" speedFactor="0.86" vaporized=""/>
    <tripinfo id="taxi75.0" depart="6.00" departLane="785902540#0_0" departPos="2.10" departSpeed="0.00" departDelay="6.00" arrival="59.00" arrivalLane="785902540#2_1" arrivalPos="325.64" arrivalSpeed="25.50" duration="53.00" routeLength="911.20" waitingTime="0.00" waitingCount="0" stopTime="0.00" timeLoss="17.29" rerouteNo="0" devices="tripinfo_taxi75.0 routing_taxi75.0" vType="taxi" speedFactor="0.93" vaporized=""/>
    <tripinfo id="cars_SUV105.0" depart="5.00" departLane="-785902540#2_0" departPos="5.10" departSpeed="0.00" departDelay="5.00" arrival="63.00" arrivalLane="-785902540#1_1" arrivalPos="564.51" arrivalSpeed="22.92" duration="58.00" routeLength="908.09" waitingTime="0.00" waitingCount="0" stopTime="0.00" timeLoss="17.92" rerouteNo="0" devices="tripinfo_cars_SUV105.0 routing_cars_SUV105.0" vType="cars_SUV" speedFactor="0.83" vaporized=""/>
    <tripinfo id="motorcycles_scooters105.0" depart="11.00" departLane="-785902540#2_0" departPos="2.10" departSpeed="0.00" departDelay="11.00" arrival="64.00" arrivalLane="-785902540#1_1" arrivalPos="564.51" arrivalSpeed="24.10" duration="53.00" routeLength="911.09" waitingTime="0.00" waitingCount="0" stopTime="0.00" timeLoss="20.69" rerouteNo="0" devices="tripinfo_motorcycles_scooters105.0 routing_motorcycles_scooters105.0" vType="motorcycles_scooters" speedFactor="1.03" vaporized=""/>
    <tripinfo id="cars_SUV0.0" depart="0.00" departLane="785902529_0" departPos="5.10" departSpeed="0.00" departDelay="0.00" arrival="65.00" arrivalLane="-785902540#1_1" arrivalPos="564.51" arrivalSpeed="21.78" duration="65.00" routeLength="655.44" waitingTime="1.00" waitingCount="1" stopTime="0.00" timeLoss="41.51" rerouteNo="0" devices="tripinfo_cars_SUV0.0 routing_cars_SUV0.0" vType="cars_SUV" speedFactor="1.06" vaporized=""/>
    <tripinfo id="motorcycles_scooters0.0" depart="9.00" departLane="785902529_0" departPos="2.10" departSpeed="0.00" departDelay="9.00" arrival="67.00" arrivalLane="-785902540#1_0" arrivalPos="564.51" arrivalSpeed="27.05" duration="58.00" routeLength="658.44" waitingTime="2.00" waitingCount="1" stopTime="0.00" timeLoss="33.81" rerouteNo="0" devices="tripinfo_motorcycles_scooters0.0 routing_motorcycles_scooters0.0" vType="motorcycles_scooters" speedFactor="1.05" vaporized=""/>
    <tripinfo id="motorcycles_scooters45.0" depart="3.00" departLane="-732022517_0" departPos="2.10" departSpeed="0.00" departDelay="3.00" arrival="67.00" arrivalLane="-785902529_0" arrivalPos="81.89" arrivalSpeed="12.27" duration="64.00" routeLength="234.13" waitingTime="27.00" waitingCount="1" stopTime="0.00" timeLoss="53.31" rerouteNo="0" devices="tripinfo_motorcycles_scooters45.0 routing_motorcycles_scooters45.0" vType="motorcycles_scooters" speedFactor="0.94" vaporized=""/>
    <tripinfo id="taxi45.0" depart="6.00" departLane="-732022517_0" departPos="2.10" departSpeed="0.00" departDelay="6.00" arrival="68.00" arrivalLane="-785902529_1" arrivalPos="81.89" arrivalSpeed="13.25" duration="62.00" routeLength="234.13" waitingTime="23.00" waitingCount="1" stopTime="0.00" timeLoss="51.91" rerouteNo="0" devices="tripinfo_taxi45.0 routing_taxi45.0" vType="taxi" speedFactor="0.99" vaporized=""/>
    <tripinfo id="taxi105.0" depart="16.00" departLane="-785902540#2_0" departPos="2.10" departSpeed="0.00" departDelay="16.00" arrival="68.00" arrivalLane="-785902540#1_1" arrivalPos="564.51" arrivalSpeed="25.83" duration="52.00" routeLength="911.09" waitingTime="0.00" waitingCount="0" stopTime="0.00" timeLoss="16.45" rerouteNo="0" devices="tripinfo_taxi105.0 routing_taxi105.0" vType="taxi" speedFactor="0.94" vaporized=""/>
    <tripinfo id="cars_SUV45.0" depart="0.00" departLane="-732022517_0" departPos="5.10" departSpeed="0.00" departDelay="0.00" arrival="69.00" arrivalLane="-785902529_0" arrivalPos="81.89" arrivalSpeed="11.08" duration="69.00" routeLength="231.13" waitingTime="29.00" waitingCount="1" stopTime="0.00" timeLoss="59.34" rerouteNo="0" devices="tripinfo_cars_SUV45.0 routing_cars_SUV45.0" vType="cars_SUV" speedFactor="1.01" vaporized=""/>
    <tripinfo id="motorcycles_scooters15.0" depart="12.00" departLane="785902529_0" departPos="2.10" departSpeed="0.00" departDelay="12.00" arrival="70.00" arrivalLane="732022517_0" arrivalPos="133.31" arrivalSpeed="15.26" duration="58.00" routeLength="236.96" waitingTime="19.00" waitingCount="1" stopTime="0.00" timeLoss="46.65" rerouteNo="0" devices="tripinfo_motorcycles_scooters15.0 routing_motorcycles_scooters15.0" vType="motorcycles_scooters" speedFactor="0.89" vaporized=""/>
    <tripinfo id="smallTrucks45.0" depart="20.00" departLane="-732022517_0" departPos="7.10" departSpeed="0.00" departDelay="20.00" arrival="72.00" arrivalLane="-785902529_1" arrivalPos="81.89" arrivalSpeed="12.10" duration="52.00" routeLength="229.13" waitingTime="9.00" waitingCount="1" stopTime="0.00" timeLoss="42.07" rerouteNo="0" devices="tripinfo_smallTrucks45.0 routing_smallTrucks45.0" vType="smallTrucks" speedFactor="0.98" vaporized=""/>
    <tripinfo id="cars_SUV15.0" depart="6.00" departLane="785902529_0" departPos="5.10" departSpeed="0.00" departDelay="6.00" arrival="73.00" arrivalLane="732022517_0" arrivalPos="133.31" arrivalSpeed="13.86" duration="67.00" routeLength="233.96" waitingTime="27.00" waitingCount="1" stopTime="0.00" timeLoss="56.16" rerouteNo="0" devices="tripinfo_cars_SUV15.0 routing_cars_SUV15.0" vType="cars_SUV" speedFactor="0.94" vaporized=""/>
    <tripinfo id="taxi15.0" depart="17.00" departLane="785902529_0" departPos="2.10" departSpeed="0.00" departDelay="17.00" arrival="74.00" arrivalLane="732022517_0" arrivalPos="133.31" arrivalSpeed="13.74" duration="57.00" routeLength="236.96" waitingTime="18.00" waitingCount="1" stopTime="0.00" timeLoss="47.98" rerouteNo="0" devices="tripinfo_taxi15.0 routing_taxi15.0" vType="taxi" speedFactor="1.12" vaporized=""/>
    <tripinfo id="jeepney45.0" depart="30.00" departLane="-732022517_0" departPos="7.10" departSpeed="0.00" departDelay="30.00" arrival="75.00" arrivalLane="-785902529_1" arrivalPos="81.89" arrivalSpeed="11.73" duration="45.00" routeLength="229.13" waitingTime="3.00" waitingCount="1" stopTime="0.00" timeLoss="34.59" rerouteNo="0" devices="tripinfo_jeepney45.0 routing_jeepney45.0" vType="jeepney" speedFactor="0.92" vaporized=""/>
    <tripinfo id="buses45.0" depart="12.00" departLane="-732022517_0" departPos="15.10" departSpeed="0.00" departDelay="12.00" arrival="78.00" arrivalLane="-785902529_0" arrivalPos="81.89" arrivalSpeed="8.63" duration="66.00" routeLength="221.13" waitingTime="9.00" waitingCount="1" stopTime="0.00" timeLoss="57.75" rerouteNo="0" devices="tripinfo_buses45.0 routing_buses45.0" vType="buses" speedFactor="1.16" vaporized=""/>
    <tripinfo id="smallTrucks15.0" depart="38.00" departLane="785902529_0" departPos="7.10" departSpeed="0.00" departDelay="38.00" arrival="79.00" arrivalLane="732022517_0" arrivalPos="133.31" arrivalSpeed="14.38" duration="41.00" routeLength="231.96" waitingTime="1.00" waitingCount="1" stopTime="0.00" timeLoss="31.23" rerouteNo="0" devices="tripinfo_smallTrucks15.0 routing_smallTrucks15.0" vType="smallTrucks" speedFactor="1.01" vaporized=""/>
    <tripinfo id="motorela45.0" depart="35.00" departLane="-732022517_0" departPos="2.10" departSpeed="0.00" departDelay="35.00" arrival="80.00" arrivalLane="-785902529_0" arrivalPos="81.89" arrivalSpeed="10.07" duration="45.00" routeLength="234.13" waitingTime="1.00" waitingCount="1" stopTime="0.00" timeLoss="36.54" rerouteNo="0" devices="tripinfo_motorela45.0 routing_motorela45.0" vType="motorela" speedFactor="1.17" vaporized=""/>
    <tripinfo id="largeTrucks45.0" depart="27.00" departLane="-732022517_0" departPos="12.10" departSpeed="0.00" departDelay="27.00" arrival="83.00" arrivalLane="-785902529_1" arrivalPos="81.89" arrivalSpeed="9.05" duration="56.00" routeLength="224.13" waitingTime="0.00" waitingCount="0" stopTime="0.00" timeLoss="44.66" rerouteNo="0" devices="tripinfo_largeTrucks45.0 routing_largeTrucks45.0" vType="largeTrucks" speedFactor="0.83" vaporized=""/>
    <tripinfo id="motorela30.0" depart="33.00" departLane="-732022517_0" departPos="2.10" departSpeed="0.00" departDelay="33.00" arrival="84.00" arrivalLane="785902540#2_0" arrivalPos="325.64" arrivalSpeed="27.22" duration="51.00" routeLength="466.83" waitingTime="0.00" waitingCount="0" stopTime="0.00" timeLoss="31.35" rerouteNo="0" devices="tripinfo_motorela30.0 routing_motorela30.0" vType="motorela" speedFactor="1.01" vaporized=""/>
    <tripinfo id="buses15.0" depart="25.00" departLane="785902529_0" departPos="15.10" departSpeed="0.00" departDelay="25.00" arrival="85.00" arrivalLane="732022517_1" arrivalPos="133.31" arrivalSpeed="9.93" duration="60.00" routeLength="223.96" waitingTime="5.00" waitingCount="1" stopTime="0.00" timeLoss="49.61" rerouteNo="0" devices="tripinfo_buses15.0 routing_buses15.0" vType="buses" speedFactor="0.94" vaporized=""/>
    <tripinfo id="jeepney90.0" depart="21.00" departLane="-785902540#2_0" departPos="7.10" departSpeed="0.00" departDelay="21.00" arrival="86.00" arrivalLane="-785902529_0" arrivalPos="81.89" arrivalSpeed="10.68" duration="65.00" routeLength="409.02" waitingTime="12.00" waitingCount="1" stopTime="0.00" timeLoss="50.31" rerouteNo="0" devices="tripinfo_jeepney90.0 routing_jeepney90.0" vType="jeepney" speedFactor="1.13" vaporized=""/>
    <tripinfo id="motorela15.0" depart="46.00" departLane="785902529_0" departPos="2.10" departSpeed="0.00" departDelay="46.00" arrival="87.00" arrivalLane="732022517_1" arrivalPos="133.31" arrivalSpeed="11.63" duration="41.00" routeLength="236.96" waitingTime="1.00" waitingCount="1" stopTime="0.00" timeLoss="32.19" rerouteNo="0" devices="tripinfo_motorela15.0 routing_motorela15.0" vType="motorela" speedFactor="1.15" vaporized=""/>
    <tripinfo id="motorela90.0" depart="30.00" departLane="-785902540#2_0" departPos="2.10" departSpeed="0.00" departDelay="30.00" arrival="88.00" arrivalLane="-785902529_0" arrivalPos="81.89" arrivalSpeed="16.87" duration="58.00" routeLength="414.02" waitingTime="12.00" waitingCount="2" stopTime="0.00" timeLoss="42.03" rerouteNo="0" devices="tripinfo_motorela90.0 routing_motorela90.0" vType="motorela" speedFactor="1.02" vaporized=""/>
    <tripinfo id="taxi0.0" depart="14.00" departLane="785902529_0" departPos="2.10" departSpeed="0.00" departDelay="14.00" arrival="91.00" arrivalLane="-785902540#1_0" arrivalPos="564.51" arrivalSpeed="28.79" duration="77.00" routeLength="658.44" waitingTime="19.00" waitingCount="2" stopTime="0.00" timeLoss="53.08" rerouteNo="0" devices="tripinfo_taxi0.0 routing_taxi0.0" vType="taxi" speedFactor="1.05" vaporized=""/>
    <tripinfo id="motorela0.0" depart="44.00" departLane="785902529_0" departPos="2.10" departSpeed="0.00" departDelay="44.00" arrival="94.00" arrivalLane="-785902540#1_1" arrivalPos="564.51" arrivalSpeed="29.39" duration="50.00" routeLength="658.44" waitingTime="0.00" waitingCount="0" stopTime="0.00" timeLoss="26.50" rerouteNo="0" devices="tripinfo_motorela0.0 routing_motorela0.0" vType="motorela" speedFactor="1.18" vaporized=""/>
    <tripinfo id="smallTrucks0.0" depart="33.00" departLane="785902529_0" departPos="7.10" departSpeed="0.00" departDelay="33.00" arrival="98.00" arrivalLane="-785902540#1_0" arrivalPos="564.51" arrivalSpeed="26.32" duration="65.00" routeLength="653.44" waitingTime="4.00" waitingCount="1" stopTime="0.00" timeLoss="40.21" rerouteNo="0" devices="tripinfo_smallTrucks0.0 routing_smallTrucks0.0" vType="smallTrucks" speedFactor="1.02" vaporized=""/>
    <tripinfo id="motorela75.0" depart="20.00" departLane="785902540#0_0" departPos="2.10" departSpeed="0.00" departDelay="20.00" arrival="102.00" arrivalLane="785902540#2_0" arrivalPos="325.64" arrivalSpeed="26.73" duration="82.00" routeLength="911.20" waitingTime="25.00" waitingCount="1" stopTime="0.00" timeLoss="48.68" rerouteNo="0" devices="tripinfo_motorela75.0 routing_motorela75.0" vType="motorela" speedFactor="0.99" vaporized=""/>
    <tripinfo id="bicycle_tricycle0.0" depart="42.00" departLane="785902529_0" departPos="2.10" departSpeed="0.00" departDelay="42.00" arrival="108.00" arrivalLane="-785902540#1_0" arrivalPos="564.51" arrivalSpeed="14.71" duration="66.00" routeLength="658.44" waitingTime="0.00" waitingCount="0" stopTime="0.00" timeLoss="20.73" rerouteNo="0" devices="tripinfo_bicycle_tricycle0.0 routing_bicycle_tricycle0.0" vType="bicycle_tricycle" speedFactor="0.87" vaporized=""/>
    <tripinfo id="motorela105.1" depart="53.00" departLane="-785902540#2_0" departPos="2.10" departSpeed="0.00" departDelay="0.06" arrival="110.00" arrivalLane="-785902540#1_1" arrivalPos="564.51" arrivalSpeed="29.31" duration="57.00" routeLength="911.09" waitingTime="1.00" waitingCount="1" stopTime="0.00" timeLoss="25.78" rerouteNo="0" devices="tripinfo_motorela105.1 routing_motorela105.1" vType="motorela" speedFactor="1.18" vaporized=""/>
    <tripinfo id="motorela105.0" depart="32.00" departLane="-785902540#2_0" departPos="2.10" departSpeed="0.00" departDelay="32.00" arrival="111.00" arrivalLane="-785902540#1_0" arrivalPos="564.51" arrivalSpeed="26.89" duration="79.00" routeLength="911.09" waitingTime="21.00" waitingCount="1" stopTime="0.00" timeLoss="44.46" rerouteNo="0" devices="tripinfo_motorela105.0 routing_motorela105.0" vType="motorela" speedFactor="0.97" vaporized=""/>
    <tripinfo id="smallTrucks75.0" depart="11.00" departLane="785902540#0_0" departPos="7.10" departSpeed="0.00" departDelay="11.00" arrival="114.00" arrivalLane="785902540#2_1" arrivalPos="325.64" arrivalSpeed="20.11" duration="103.00" routeLength="906.20" waitingTime="20.00" waitingCount="1" stopTime="0.00" timeLoss="66.27" rerouteNo="0" devices="tripinfo_smallTrucks75.0 routing_smallTrucks75.0" vType="smallTrucks" speedFactor="0.89" vaporized=""/>
    <tripinfo id="jeepney75.0" depart="17.00" departLane="785902540#0_0" departPos="7.10" departSpeed="0.00" departDelay="17.00" arrival="116.00" arrivalLane="785902540#2_0" arrivalPos="325.64" arrivalSpeed="19.98" duration="99.00" routeLength="906.20" waitingTime="14.00" waitingCount="2" stopTime="0.00" timeLoss="64.03" rerouteNo="0" devices="tripinfo_jeepney75.0 routing_jeepney75.0" vType="jeepney" speedFactor="0.95" vaporized=""/>
    <tripinfo id="motorela75.1" depart="62.00" departLane="785902540#0_0" departPos="2.10" departSpeed="0.00" departDelay="0.98" arrival="116.00" arrivalLane="785902540#2_1" arrivalPos="325.64" arrivalSpeed="22.61" duration="54.00" routeLength="911.20" waitingTime="0.00" waitingCount="0" stopTime="0.00" timeLoss="16.97" rerouteNo="0" devices="tripinfo_motorela75.1 routing_motorela75.1" vType="motorela" speedFactor="0.90" vaporized=""/>
    <tripinfo id="jeepney105.0" depart="27.00" departLane="-785902540#2_0" departPos="7.10" departSpeed="0.00" departDelay="27.00" arrival="125.00" arrivalLane="-785902540#1_0" arrivalPos="564.51" arrivalSpeed="25.60" duration="98.00" routeLength="906.09" waitingTime="20.00" waitingCount="1" stopTime="0.00" timeLoss="62.73" rerouteNo="0" devices="tripinfo_jeepney105.0 routing_jeepney105.0" vType="jeepney" speedFactor="0.93" vaporized=""/>
    <tripinfo id="motorela0.1" depart="82.00" departLane="785902529_0" departPos="2.10" departSpeed="0.00" departDelay="0.18" arrival="126.00" arrivalLane="-785902540#1_1" arrivalPos="564.51" arrivalSpeed="28.52" duration="44.00" routeLength="658.44" waitingTime="1.00" waitingCount="1" stopTime="0.00" timeLoss="20.13" rerouteNo="0" devices="tripinfo_motorela0.1 routing_motorela0.1" vType="motorela" speedFactor="1.03" vaporized=""/>
    <tripinfo id="motorela105.2" depart="106.00" departLane="-785902540#2_0" departPos="2.10" departSpeed="0.00" departDelay="0.12" arrival="147.00" arrivalLane="-785902540#1_0" arrivalPos="564.51" arrivalSpeed="28.72" duration="41.00" routeLength="911.09" waitingTime="0.00" waitingCount="0" stopTime="0.00" timeLoss="8.73" rerouteNo="0" devices="tripinfo_motorela105.2 routing_motorela105.2" vType="motorela" speedFactor="1.04" vaporized=""/>
    <tripinfo id="motorela45.1" depart="88.00" departLane="-732022517_0" departPos="2.10" departSpeed="0.00" departDelay="0.20" arrival="166.00" arrivalLane="-785902529_1" arrivalPos="81.89" arrivalSpeed="17.84" duration="78.00" routeLength="234.13" waitingTime="51.00" waitingCount="1" stopTime="0.00" timeLoss="67.88" rerouteNo="0" devices="tripinfo_motorela45.1 routing_motorela45.1" vType="motorela" speedFactor="0.96" vaporized=""/>
    <tripinfo id="motorcycles_scooters45.1" depart="60.00" departLane="-732022517_0" departPos="2.10" departSpeed="0.00" departDelay="0.00" arrival="173.00" arrivalLane="-785902529_0" arrivalPos="81.89" arrivalSpeed="12.04" duration="113.00" routeLength="234.13" waitingTime="75.00" waitingCount="1" stopTime="0.00" timeLoss="103.84" rerouteNo="0" devices="tripinfo_motorcycles_scooters45.1 routing_motorcycles_scooters45.1" vType="motorcycles_scooters" speedFactor="1.10" vaporized=""/>
    <tripinfo id="motorcycles_scooters105.1" depart="120.00" departLane="-785902540#2_0" departPos="2.10" departSpeed="0.00" departDelay="0.00" arrival="173.00" arrivalLane="-785902540#1_0" arrivalPos="564.51" arrivalSpeed="27.70" duration="53.00" routeLength="911.09" waitingTime="0.00" waitingCount="0" stopTime="0.00" timeLoss="19.41" rerouteNo="0" devices="tripinfo_motorcycles_scooters105.1 routing_motorcycles_scooters105.1" vType="motorcycles_scooters" speedFactor="1.00" vaporized=""/>
    <tripinfo id="taxi45.1" depart="106.00" departLane="-732022517_0" departPos="2.10" departSpeed="0.00" departDelay="3.14" arrival="174.00" arrivalLane="-785902529_1" arrivalPos="81.89" arrivalSpeed="13.16" duration="68.00" routeLength="234.13" waitingTime="30.00" waitingCount="1" stopTime="0.00" timeLoss="58.35" rerouteNo="0" devices="tripinfo_taxi45.1 routing_taxi45.1" vType="taxi" speedFactor="1.04" vaporized=""/>
    <tripinfo id="cars_SUV45.1" depart="103.00" departLane="-732022517_0" departPos="5.10" departSpeed="0.00" departDelay="0.14" arrival="176.00" arrivalLane="-785902529_0" arrivalPos="81.89" arrivalSpeed="11.73" duration="73.00" routeLength="231.13" waitingTime="32.00" waitingCount="1" stopTime="0.00" timeLoss="63.87" rerouteNo="0" devices="tripinfo_cars_SUV45.1 routing_cars_SUV45.1" vType="cars_SUV" speedFactor="1.09" vaporized=""/>
    <tripinfo id="motorcycles_scooters45.2" depart="120.00" departLane="-732022517_0" departPos="2.10" departSpeed="0.00" departDelay="0.00" arrival="176.00" arrivalLane="-785902529_1" arrivalPos="81.89" arrivalSpeed="13.19" duration="56.00" routeLength="234.13" waitingTime="16.00" waitingCount="1" stopTime="0.00" timeLoss="46.66" rerouteNo="0" devices="tripinfo_motorcycles_scooters45.2 routing_motorcycles_scooters45.2" vType="motorcycles_scooters" speedFactor="1.09" vaporized=""/>
    <tripinfo id="cars_SUV15.1" depart="134.00" departLane="785902529_0" departPos="5.10" departSpeed="0.00" departDelay="0.67" arrival="178.00" arrivalLane="732022517_0" arrivalPos="133.31" arrivalSpeed="13.77" duration="44.00" routeLength="233.96" waitingTime="4.00" waitingCount="1" stopTime="0.00" timeLoss="31.93" rerouteNo="0" devices="tripinfo_cars_SUV15.1 routing_cars_SUV15.1" vType="cars_SUV" speedFactor="0.85" vaporized=""/>
    <tripinfo id="motorela75.2" depart="123.00" departLane="785902540#0_0" departPos="2.10" departSpeed="0.00" departDelay="0.97" arrival="192.00" arrivalLane="785902540#2_0" arrivalPos="325.64" arrivalSpeed="24.38" duration="69.00" routeLength="911.20" waitingTime="11.00" waitingCount="1" stopTime="0.00" timeLoss="31.92" rerouteNo="0" devices="tripinfo_motorela75.2 routing_motorela75.2" vType="motorela" speedFactor="0.90" vaporized=""/>
    <tripinfo id="motorela105.3" depart="159.00" departLane="-785902540#2_0" departPos="2.10" departSpeed="0.00" departDelay="0.18" arrival="206.00" arrivalLane="-785902540#1_1" arrivalPos="564.51" arrivalSpeed="23.32" duration="47.00" routeLength="911.09" waitingTime="0.00" waitingCount="0" stopTime="0.00" timeLoss="8.06" rerouteNo="0" devices="tripinfo_motorela105.3 routing_motorela105.3" vType="motorela" speedFactor="0.85" vaporized=""/>
    <tripinfo id="motorela0.2" depart="164.00" departLane="785902529_0" departPos="2.10" departSpeed="0.00" departDelay="0.36" arrival="211.00" arrivalLane="-785902540#1_1" arrivalPos="564.51" arrivalSpeed="27.28" duration="47.00" routeLength="658.44" waitingTime="6.00" waitingCount="1" stopTime="0.00" timeLoss="22.65" rerouteNo="0" devices="tripinfo_motorela0.2 routing_motorela0.2" vType="motorela" speedFactor="1.02" vaporized=""/>
    <tripinfo id="jeepney105.1" depart="129.00" departLane="-785902540#2_0" departPos="7.10" departSpeed="0.00" departDelay="0.43" arrival="214.00" arrivalLane="-785902540#1_0" arrivalPos="564.51" arrivalSpeed="24.07" duration="85.00" routeLength="906.09" waitingTime="6.00" waitingCount="1" stopTime="0.00" timeLoss="47.78" rerouteNo="0" devices="tripinfo_jeepney105.1 routing_jeepney105.1" vType="jeepney" speedFactor="0.88" vaporized=""/>
    <tripinfo id="motorcycles_scooters75.1" depart="164.00" departLane="785902540#0_0" departPos="2.10" departSpeed="0.00" departDelay="0.36" arrival="215.00" arrivalLane="785902540#2_0" arrivalPos="325.64" arrivalSpeed="29.58" duration="51.00" routeLength="911.20" waitingTime="0.00" waitingCount="0" stopTime="0.00" timeLoss="19.90" rerouteNo="0" devices="tripinfo_motorcycles_scooters75.1 routing_motorcycles_scooters75.1" vType="motorcycles_scooters" speedFactor="1.17" vaporized=""/>
    <tripinfo id="motorela75.3" depart="184.00" departLane="785902540#0_0" departPos="2.10" departSpeed="0.00" departDelay="0.95" arrival="227.00" arrivalLane="785902540#2_0" arrivalPos="325.64" arrivalSpeed="27.20" duration="43.00" routeLength="911.20" waitingTime="0.00" waitingCount="0" stopTime="0.00" timeLoss="10.01" rerouteNo="0" devices="tripinfo_motorela75.3 routing_motorela75.3" vType="motorela" speedFactor="1.00" vaporized=""/>
    <tripinfo id="motorcycles_scooters0.1" depart="190.00" departLane="785902529_0" departPos="2.10" departSpeed="0.00" departDelay="0.53" arrival="248.00" arrivalLane="-785902540#1_0" arrivalPos="564.51" arrivalSpeed="24.96" duration="58.00" routeLength="658.44" waitingTime="1.00" waitingCount="1" stopTime="0.00" timeLoss="29.87" rerouteNo="0" devices="tripinfo_motorcycles_scooters0.1 routing_motorcycles_scooters0.1" vType="motorcycles_scooters" speedFactor="0.90" vaporized=""/>
    <tripinfo id="motorela105.4" depart="212.00" departLane="-785902540#2_0" departPos="2.10" departSpeed="0.00" departDelay="0.24" arrival="253.00" arrivalLane="-785902540#1_0" arrivalPos="564.51" arrivalSpeed="29.46" duration="41.00" routeLength="911.09" waitingTime="0.00" waitingCount="0" stopTime="0.00" timeLoss="9.71" rerouteNo="0" devices="tripinfo_motorela105.4 routing_motorela105.4" vType="motorela" speedFactor="1.08" vaporized=""/>
    <tripinfo id="motorela45.2" depart="176.00" departLane="-732022517_0" departPos="2.10" departSpeed="0.00" departDelay="0.39" arrival="272.00" arrivalLane="-785902529_0" arrivalPos="81.89" arrivalSpeed="17.95" duration="96.00" routeLength="234.13" waitingTime="68.00" waitingCount="1" stopTime="0.00" timeLoss="86.79" rerouteNo="0" devices="tripinfo_motorela45.2 routing_motorela45.2" vType="motorela" speedFactor="1.10" vaporized=""/>
    <tripinfo id="motorcycles_scooters45.3" depart="180.00" departLane="-732022517_0" departPos="2.10" departSpeed="0.00" departDelay="0.00" arrival="278.00" arrivalLane="-785902529_0" arrivalPos="81.89" arrivalSpeed="12.73" duration="98.00" routeLength="234.13" waitingTime="60.00" waitingCount="1" stopTime="0.00" timeLoss="87.92" rerouteNo="0" devices="tripinfo_motorcycles_scooters45.3 routing_motorcycles_scooters45.3" vType="motorcycles_scooters" speedFactor="1.00" vaporized=""/>
    <tripinfo id="taxi45.2" depart="209.00" departLane="-732022517_0" departPos="2.10" departSpeed="0.00" departDelay="3.29" arrival="278.00" arrivalLane="-785902529_1" arrivalPos="81.89" arrivalSpeed="13.10" duration="69.00" routeLength="234.13" waitingTime="30.00" waitingCount="1" stopTime="0.00" timeLoss="58.72" rerouteNo="0" devices="tripinfo_taxi45.2 routing_taxi45.2" vType="taxi" speedFactor="0.97" vaporized=""/>
    <tripinfo id="motorcycles_scooters15.1" depart="200.00" departLane="785902529_0" departPos="2.10" departSpeed="0.00" departDelay="0.00" arrival="280.00" arrivalLane="732022517_0" arrivalPos="133.31" arrivalSpeed="15.58" duration="80.00" routeLength="236.96" waitingTime="45.00" waitingCount="1" stopTime="0.00" timeLoss="70.98" rerouteNo="0" devices="tripinfo_motorcycles_scooters15.1 routing_motorcycles_scooters15.1" vType="motorcycles_scooters" speedFactor="1.14" vaporized=""/>
    <tripinfo id="cars_SUV45.2" depart="206.00" departLane="-732022517_0" departPos="5.10" departSpeed="0.00" departDelay="0.29" arrival="281.00" arrivalLane="-785902529_0" arrivalPos="81.89" arrivalSpeed="11.12" duration="75.00" routeLength="231.13" waitingTime="32.00" waitingCount="1" stopTime="0.00" timeLoss="65.63" rerouteNo="0" devices="tripinfo_cars_SUV45.2 routing_cars_SUV45.2" vType="cars_SUV" speedFactor="1.02" vaporized=""/>
    <tripinfo id="taxi15.1" depart="240.00" departLane="785902529_0" departPos="2.10" departSpeed="0.00" departDelay="0.00" arrival="281.00" arrivalLane="732022517_1" arrivalPos="133.31" arrivalSpeed="15.27" duration="41.00" routeLength="236.96" waitingTime="3.00" waitingCount="1" stopTime="0.00" timeLoss="30.22" rerouteNo="0" devices="tripinfo_taxi15.1 routing_taxi15.1" vType="taxi" speedFactor="0.94" vaporized=""/>