<?xml version="1.0" encoding="UTF-8"?>

<!-- generated on 2022-05-06 11:18:30 by Eclipse SUMO GUI Version 1.10.0
<configuration xmlns:xsi="http://www.w3.org/2001/XMLSchema-instance" xsi:noNamespaceSchemaLocation="http://sumo.dlr.de/xsd/sumoConfiguration.xsd">

    <input>
        <net-file value="Simulation_Environment\Actuated\osm.net.xml"/>
        <route-files value="Simulation_Environment\Actuated\cars_SUV.xml,Simulation_Environment\Actuated\motorcycles_scooters.xml,Simulation_Environment\Actuated\taxi.xml,Simulation_Environment\Actuated\buses.xml,Simulation_Environment\Actuated\smallTrucks.xml,Simulation_Environment\Actuated\largeTrucks.xml,Simulation_Environment\Actuated\bicycle_tricycle.xml,Simulation_Environment\Actuated\jeepney.xml,Simulation_Environment\Actuated\motorela.xml"/>
        <additional-files value="Simulation_Environment\Actuated\osm.tlLogic.xml"/>
    </input>

    <output>
        <summary-output value="Results\actuated.xml"/>
        <tripinfo-output value="Data\Actuated\trip-info.xml"/>
    </output>

    <processing>
        <ignore-route-errors value="true"/>
        <scale value="1"/>
    </processing>

    <routing>
        <device.rerouting.adaptation-steps value="18"/>
        <device.rerouting.adaptation-interval value="10"/>
    </routing>

    <report>
        <verbose value="true"/>
        <duration-log.statistics value="true"/>
        <no-step-log value="true"/>
    </report>

    <traci_server>
        <remote-port value="65340"/>
    </traci_server>

    <gui_only>
        <gui-settings-file value="Simulation_Environment\Actuated\osm.view.xml"/>
        <start value="true"/>
    </gui_only>

</configuration>
-->

<detector xmlns:xsi="http://www.w3.org/2001/XMLSchema-instance" xsi:noNamespaceSchemaLocation="http://sumo.dlr.de/xsd/det_e1_file.xsd">
    <interval begin="0.00" end="300.00" id="TLS4889475255_1_InductLoopOn_785902529_0" nVehContrib="18" flow="216.00" occupancy="3.21" speed="8.88" harmonicMeanSpeed="8.22" length="3.67" nVehEntered="18"/>
    <interval begin="0.00" end="300.00" id="TLS4889475255_1_InductLoopOn_785902529_1" nVehContrib="3" flow="36.00" occupancy="0.65" speed="7.52" harmonicMeanSpeed="7.47" length="4.67" nVehEntered="3"/>
    <interval begin="0.00" end="300.00" id="TLS4889475255_1_InductLoopOn_-785902540#2_0" nVehContrib="15" flow="180.00" occupancy="2.19" speed="8.74" harmonicMeanSpeed="8.41" length="3.40" nVehEntered="15"/>
    <interval begin="0.00" end="300.00" id="TLS4889475255_1_InductLoopOn_-785902540#2_1" nVehContrib="4" flow="48.00" occupancy="0.57" speed="8.13" harmonicMeanSpeed="8.08" length="3.25" nVehEntered="4"/>
    <interval begin="0.00" end="300.00" id="TLS4889475255_1_InductLoopOn_-732022517_0" nVehContrib="19" flow="228.00" occupancy="3.33" speed="8.96" harmonicMeanSpeed="8.61" length="3.95" nVehEntered="19"/>
    <interval begin="0.00" end="300.00" id="TLS4889475255_1_InductLoopOn_-732022517_1" nVehContrib="2" flow="24.00" occupancy="0.78" speed="8.03" harmonicMeanSpeed="7.29" length="7.00" nVehEntered="2"/>
    <interval begin="0.00" end="300.00" id="TLS4889475255_1_InductLoopOn_785902540#0_0" nVehContrib="9" flow="108.00" occupancy="1.32" speed="8.77" harmonicMeanSpeed="8.42" length="3.44" nVehEntered="9"/>
    <interval begin="0.00" end="300.00" id="TLS4889475255_1_InductLoopOn_785902540#0_1" nVehContrib="2" flow="24.00" occupancy="0.12" speed="10.87" harmonicMeanSpeed="10.87" length="2.00" nVehEntered="2"/>
    <interval begin="300.00" end="600.00" id="TLS4889475255_1_InductLoopOn_785902529_0" nVehContrib="10" flow="120.00" occupancy="1.04" speed="9.18" harmonicMeanSpeed="8.84" length="2.60" nVehEntered="10"/>
    <interval begin="300.00" end="600.00" id="TLS4889475255_1_InductLoopOn_785902529_1" nVehContrib="1" flow="12.00" occupancy="0.22" speed="7.45" harmonicMeanSpeed="7.45" length="5.00" nVehEntered="1"/>
    <interval begin="300.00" end="600.00" id="TLS4889475255_1_InductLoopOn_-785902540#2_0" nVehContrib="9" flow="108.00" occupancy="1.32" speed="8.83" harmonicMeanSpeed="8.46" length="3.44" nVehEntered="9"/>
    <interval begin="300.00" end="600.00" id="TLS4889475255_1_InductLoopOn_-785902540#2_1" nVehContrib="3" flow="36.00" occupancy="0.18" speed="11.10" harmonicMeanSpeed="11.08" length="2.00" nVehEntered="3"/>
    <interval begin="300.00" end="600.00" id="TLS4889475255_1_InductLoopOn_-732022517_0" nVehContrib="15" flow="180.00" occupancy="1.71" speed="9.32" harmonicMeanSpeed="9.02" length="2.93" nVehEntered="15"/>
    <interval begin="300.00" end="600.00" id="TLS4889475255_1_InductLoopOn_-732022517_1" nVehContrib="0" flow="0.00" occupancy="0.00" speed="-1.00" harmonicMeanSpeed="-1.00" length="-1.00" nVehEntered="0"/>
    <interval begin="300.00" end="600.00" id="TLS4889475255_1_InductLoopOn_785902540#0_0" nVehContrib="7" flow="84.00" occupancy="0.46" speed="10.44" harmonicMeanSpeed="10.13" length="2.00" nVehEntered="7"/>
    <interval begin="300.00" end="600.00" id="TLS4889475255_1_InductLoopOn_785902540#0_1" nVehContrib="0" flow="0.00" occupancy="0.00" speed="-1.00" harmonicMeanSpeed="-1.00" length="-1.00" nVehEntered="0"/>
    <interval begin="600.00" end="900.00" id="TLS4889475255_1_InductLoopOn_785902529_0" nVehContrib="10" flow="120.00" occupancy="1.21" speed="8.89" harmonicMeanSpeed="8.50" length="2.90" nVehEntered="10"/>
    <interval begin="600.00" end="900.00" id="TLS4889475255_1_InductLoopOn_785902529_1" nVehContrib="0" flow="0.00" occupancy="0.00" speed="-1.00" harmonicMeanSpeed="-1.00" length="-1.00" nVehEntered="0"/>
    <interval begin="600.00" end="900.00" id="TLS4889475255_1_InductLoopOn_-785902540#2_0" nVehContrib="9" flow="108.00" occupancy="0.88" speed="9.72" harmonicMeanSpeed="9.33" length="2.56" nVehEntered="9"/>
    <interval begin="600.00" end="900.00" id="TLS4889475255_1_InductLoopOn_-785902540#2_1" nVehContrib="2" flow="24.00" occupancy="0.58" speed="6.87" harmonicMeanSpeed="6.86" length="6.00" nVehEntered="2"/>
    <interval begin="600.00" end="900.00" id="TLS4889475255_1_InductLoopOn_-732022517_0" nVehContrib="15" flow="180.00" occupancy="1.64" speed="9.83" harmonicMeanSpeed="9.47" length="2.93" nVehEntered="15"/>
    <interval begin="600.00" end="900.00" id="TLS4889475255_1_InductLoopOn_-732022517_1" nVehContrib="1" flow="12.00" occupancy="0.07" speed="9.00" harmonicMeanSpeed="9.00" length="2.00" nVehEntered="1"/>
    <interval begin="600.00" end="900.00" id="TLS4889475255_1_InductLoopOn_785902540#0_0" nVehContrib="8" flow="96.00" occupancy="0.71" speed="9.64" harmonicMeanSpeed="9.25" length="2.38" nVehEntered="8"/>
    <interval begin="600.00" end="900.00" id="TLS4889475255_1_InductLoopOn_785902540#0_1" nVehContrib="1" flow="12.00" occupancy="0.06" speed="10.52" harmonicMeanSpeed="10.52" length="2.00" nVehEntered="1"/>
    <interval begin="900.00" end="1200.00" id="TLS4889475255_1_InductLoopOn_785902529_0" nVehContrib="10" flow="120.00" occupancy="1.07" speed="8.55" harmonicMeanSpeed="8.34" length="2.60" nVehEntered="10"/>
    <interval begin="900.00" end="1200.00" id="TLS4889475255_1_InductLoopOn_785902529_1" nVehContrib="2" flow="24.00" occupancy="0.31" speed="7.75" harmonicMeanSpeed="7.71" length="3.50" nVehEntered="2"/>
    <interval begin="900.00" end="1200.00" id="TLS4889475255_1_InductLoopOn_-785902540#2_0" nVehContrib="11" flow="132.00" occupancy="1.53" speed="9.49" harmonicMeanSpeed="8.95" length="3.36" nVehEntered="11"/>
    <interval begin="900.00" end="1200.00" id="TLS4889475255_1_InductLoopOn_-785902540#2_1" nVehContrib="1" flow="12.00" occupancy="0.06" speed="12.00" harmonicMeanSpeed="12.00" length="2.00" nVehEntered="1"/>
    <interval begin="900.00" end="1200.00" id="TLS4889475255_1_InductLoopOn_-732022517_0" nVehContrib="13" flow="156.00" occupancy="1.41" speed="9.45" harmonicMeanSpeed="9.20" length="2.85" nVehEntered="13"/>
    <interval begin="900.00" end="1200.00" id="TLS4889475255_1_InductLoopOn_-732022517_1" nVehContrib="3" flow="36.00" occupancy="0.55" speed="9.69" harmonicMeanSpeed="9.17" length="4.67" nVehEntered="3"/>
    <interval begin="900.00" end="1200.00" id="TLS4889475255_1_InductLoopOn_785902540#0_0" nVehContrib="6" flow="72.00" occupancy="0.37" speed="11.02" harmonicMeanSpeed="10.84" length="2.00" nVehEntered="6"/>
    <interval begin="900.00" end="1200.00" id="TLS4889475255_1_InductLoopOn_785902540#0_1" nVehContrib="1" flow="12.00" occupancy="0.08" speed="8.00" harmonicMeanSpeed="8.00" length="2.00" nVehEntered="1"/>
    <interval begin="1200.00" end="1500.00" id="TLS4889475255_1_InductLoopOn_785902529_0" nVehContrib="12" flow="144.00" occupancy="1.41" speed="8.39" harmonicMeanSpeed="8.14" length="2.75" nVehEntered="12"/>
    <interval begin="1200.00" end="1500.00" id="TLS4889475255_1_InductLoopOn_785902529_1" nVehContrib="1" flow="12.00" occupancy="0.24" speed="7.00" harmonicMeanSpeed="7.00" length="5.00" nVehEntered="1"/>
    <interval begin="1200.00" end="1500.00" id="TLS4889475255_1_InductLoopOn_-785902540#2_0" nVehContrib="13" flow="156.00" occupancy="1.70" speed="9.51" harmonicMeanSpeed="9.10" length="3.23" nVehEntered="13"/>
    <interval begin="1200.00" end="1500.00" id="TLS4889475255_1_InductLoopOn_-785902540#2_1" nVehContrib="1" flow="12.00" occupancy="0.09" speed="7.65" harmonicMeanSpeed="7.65" length="2.00" nVehEntered="1"/>
    <interval begin="1200.00" end="1500.00" id="TLS4889475255_1_InductLoopOn_-732022517_0" nVehContrib="13" flow="156.00" occupancy="1.56" speed="9.66" harmonicMeanSpeed="9.41" length="3.23" nVehEntered="13"/>
    <interval begin="1200.00" end="1500.00" id="TLS4889475255_1_InductLoopOn_-732022517_1" nVehContrib="3" flow="36.00" occupancy="0.35" speed="8.79" harmonicMeanSpeed="8.76" length="3.00" nVehEntered="3"/>
    <interval begin="1200.00" end="1500.00" id="TLS4889475255_1_InductLoopOn_785902540#0_0" nVehContrib="9" flow="108.00" occupancy="0.80" speed="9.51" harmonicMeanSpeed="9.16" length="2.33" nVehEntered="9"/>
    <interval begin="1200.00" end="1500.00" id="TLS4889475255_1_InductLoopOn_785902540#0_1" nVehContrib="0" flow="0.00" occupancy="0.00" speed="-1.00" harmonicMeanSpeed="-1.00" length="-1.00" nVehEntered="0"/>
    <interval begin="1500.00" end="1800.00" id="TLS4889475255_1_InductLoopOn_785902529_0" nVehContrib="10" flow="120.00" occupancy="1.23" speed="8.75" harmonicMeanSpeed="8.36" length="2.90" nVehEntered="10"/>
    <interval begin="1500.00" end="1800.00" id="TLS4889475255_1_InductLoopOn_785902529_1" nVehContrib="0" flow="0.00" occupancy="0.00" speed="-1.00" harmonicMeanSpeed="-1.00" length="-1.00" nVehEntered="0"/>
    <interval begin="1500.00" end="1800.00" id="TLS4889475255_1_InductLoopOn_-785902540#2_0" nVehContrib="8" flow="96.00" occupancy="0.76" speed="10.39" harmonicMeanSpeed="10.07" length="2.62" nVehEntered="8"/>
    <interval begin="1500.00" end="1800.00" id="TLS4889475255_1_InductLoopOn_-785902540#2_1" nVehContrib="3" flow="36.00" occupancy="0.64" speed="7.48" harmonicMeanSpeed="7.46" length="4.67" nVehEntered="3"/>
    <interval begin="1500.00" end="1800.00" id="TLS4889475255_1_InductLoopOn_-732022517_0" nVehContrib="12" flow="144.00" occupancy="1.33" speed="9.49" harmonicMeanSpeed="9.21" length="2.92" nVehEntered="12"/>
    <interval begin="1500.00" end="1800.00" id="TLS4889475255_1_InductLoopOn_-732022517_1" nVehContrib="4" flow="48.00" occupancy="0.40" speed="9.97" harmonicMeanSpeed="9.69" length="2.75" nVehEntered="4"/>
    <interval begin="1500.00" end="1800.00" id="TLS4889475255_1_InductLoopOn_785902540#0_0" nVehContrib="5" flow="60.00" occupancy="0.31" speed="11.07" harmonicMeanSpeed="10.81" length="2.00" nVehEntered="5"/>
    <interval begin="1500.00" end="1800.00" id="TLS4889475255_1_InductLoopOn_785902540#0_1" nVehContrib="1" flow="12.00" occupancy="0.06" speed="11.49" harmonicMeanSpeed="11.49" length="2.00" nVehEntered="1"/>
    <interval begin="1800.00" end="2100.00" id="TLS4889475255_1_InductLoopOn_785902529_0" nVehContrib="15" flow="180.00" occupancy="1.85" speed="8.65" harmonicMeanSpeed="8.34" length="2.93" nVehEntered="15"/>
    <interval begin="1800.00" end="2100.00" id="TLS4889475255_1_InductLoopOn_785902529_1" nVehContrib="1" flow="12.00" occupancy="0.06" speed="11.79" harmonicMeanSpeed="11.79" length="2.00" nVehEntered="1"/>
    <interval begin="1800.00" end="2100.00" id="TLS4889475255_1_InductLoopOn_-785902540#2_0" nVehContrib="12" flow="144.00" occupancy="1.49" speed="9.66" harmonicMeanSpeed="9.16" length="3.08" nVehEntered="12"/>
    <interval begin="1800.00" end="2100.00" id="TLS4889475255_1_InductLoopOn_-785902540#2_1" nVehContrib="3" flow="36.00" occupancy="0.49" speed="8.42" harmonicMeanSpeed="8.14" length="3.67" nVehEntered="3"/>
    <interval begin="1800.00" end="2100.00" id="TLS4889475255_1_InductLoopOn_-732022517_0" nVehContrib="15" flow="180.00" occupancy="1.79" speed="9.30" harmonicMeanSpeed="9.06" length="2.73" nVehEntered="16"/>
    <interval begin="1800.00" end="2100.00" id="TLS4889475255_1_InductLoopOn_-732022517_1" nVehContrib="3" flow="36.00" occupancy="1.62" speed="5.94" harmonicMeanSpeed="5.63" length="9.00" nVehEntered="3"/>
    <interval begin="1800.00" end="2100.00" id="TLS4889475255_1_InductLoopOn_785902540#0_0" nVehContrib="7" flow="84.00" occupancy="0.47" speed="10.05" harmonicMeanSpeed="9.90" length="2.00" nVehEntered="7"/>
    <interval begin="1800.00" end="2100.00" id="TLS4889475255_1_InductLoopOn_785902540#0_1" nVehContrib="0" flow="0.00" occupancy="0.00" speed="-1.00" harmonicMeanSpeed="-1.00" length="-1.00" nVehEntered="0"/>
    <interval begin="2100.00" end="2400.00" id="TLS4889475255_1_InductLoopOn_785902529_0" nVehContrib="9" flow="108.00" occupancy="0.97" speed="9.25" harmonicMeanSpeed="8.86" length="2.67" nVehEntered="9"/>
    <interval begin="2100.00" end="2400.00" id="TLS4889475255_1_InductLoopOn_785902529_1" nVehContrib="1" flow="12.00" occupancy="0.23" speed="7.26" harmonicMeanSpeed="7.26" length="5.00" nVehEntered="1"/>
    <interval begin="2100.00" end="2400.00" id="TLS4889475255_1_InductLoopOn_-785902540#2_0" nVehContrib="10" flow="120.00" occupancy="1.15" speed="10.07" harmonicMeanSpeed="9.64" length="3.00" nVehEntered="10"/>
    <interval begin="2100.00" end="2400.00" id="TLS4889475255_1_InductLoopOn_-785902540#2_1" nVehContrib="0" flow="0.00" occupancy="0.00" speed="-1.00" harmonicMeanSpeed="-1.00" length="-1.00" nVehEntered="0"/>
    <interval begin="2100.00" end="2400.00" id="TLS4889475255_1_InductLoopOn_-732022517_0" nVehContrib="13" flow="156.00" occupancy="1.42" speed="9.24" harmonicMeanSpeed="9.05" length="2.85" nVehEntered="13"/>
    <interval begin="2100.00" end="2400.00" id="TLS4889475255_1_InductLoopOn_-732022517_1" nVehContrib="3" flow="36.00" occupancy="0.33" speed="10.83" harmonicMeanSpeed="10.26" length="3.00" nVehEntered="3"/>
    <interval begin="2100.00" end="2400.00" id="TLS4889475255_1_InductLoopOn_785902540#0_0" nVehContrib="9" flow="108.00" occupancy="0.79" speed="9.58" harmonicMeanSpeed="9.31" length="2.33" nVehEntered="9"/>
    <interval begin="2100.00" end="2400.00" id="TLS4889475255_1_InductLoopOn_785902540#0_1" nVehContrib="0" flow="0.00" occupancy="0.00" speed="-1.00" harmonicMeanSpeed="-1.00" length="-1.00" nVehEntered="0"/>
    <interval begin="2400.00" end="2700.00" id="TLS4889475255_1_InductLoopOn_785902529_0" nVehContrib="13" flow="156.00" occupancy="1.63" speed="8.30" harmonicMeanSpeed="8.06" length="2.92" nVehEntered="13"/>
    <interval begin="2400.00" end="2700.00" id="TLS4889475255_1_InductLoopOn_785902529_1" nVehContrib="0" flow="0.00" occupancy="0.00" speed="-1.00" harmonicMeanSpeed="-1.00" length="-1.00" nVehEntered="0"/>
    <interval begin="2400.00" end="2700.00" id="TLS4889475255_1_InductLoopOn_-785902540#2_0" nVehContrib="12" flow="144.00" occupancy="1.43" speed="9.07" harmonicMeanSpeed="8.71" length="2.92" nVehEntered="12"/>
    <interval begin="2400.00" end="2700.00" id="TLS4889475255_1_InductLoopOn_-785902540#2_1" nVehContrib="2" flow="24.00" occupancy="0.39" speed="9.07" harmonicMeanSpeed="8.58" length="4.50" nVehEntered="2"/>
    <interval begin="2400.00" end="2700.00" id="TLS4889475255_1_InductLoopOn_-732022517_0" nVehContrib="13" flow="156.00" occupancy="1.54" speed="9.35" harmonicMeanSpeed="9.09" length="3.08" nVehEntered="13"/>
    <interval begin="2400.00" end="2700.00" id="TLS4889475255_1_InductLoopOn_-732022517_1" nVehContrib="3" flow="36.00" occupancy="0.44" speed="8.75" harmonicMeanSpeed="8.72" length="3.67" nVehEntered="3"/>
    <interval begin="2400.00" end="2700.00" id="TLS4889475255_1_InductLoopOn_785902540#0_0" nVehContrib="6" flow="72.00" occupancy="0.41" speed="10.21" harmonicMeanSpeed="9.81" length="2.00" nVehEntered="6"/>
    <interval begin="2400.00" end="2700.00" id="TLS4889475255_1_InductLoopOn_785902540#0_1" nVehContrib="1" flow="12.00" occupancy="0.07" speed="9.96" harmonicMeanSpeed="9.96" length="2.00" nVehEntered="1"/>
    <interval begin="2700.00" end="3000.00" id="TLS4889475255_1_InductLoopOn_785902529_0" nVehContrib="11" flow="132.00" occupancy="1.28" speed="8.79" harmonicMeanSpeed="8.50" length="2.82" nVehEntered="11"/>
    <interval begin="2700.00" end="3000.00" id="TLS4889475255_1_InductLoopOn_785902529_1" nVehContrib="0" flow="0.00" occupancy="0.00" speed="-1.00" harmonicMeanSpeed="-1.00" length="-1.00" nVehEntered="0"/>
    <interval begin="2700.00" end="3000.00" id="TLS4889475255_1_InductLoopOn_-785902540#2_0" nVehContrib="8" flow="96.00" occupancy="1.55" speed="8.41" harmonicMeanSpeed="8.05" length="4.25" nVehEntered="8"/>
    <interval begin="2700.00" end="3000.00" id="TLS4889475255_1_InductLoopOn_-785902540#2_1" nVehContrib="4" flow="48.00" occupancy="0.25" speed="10.64" harmonicMeanSpeed="10.49" length="2.00" nVehEntered="4"/>
    <interval begin="2700.00" end="3000.00" id="TLS4889475255_1_InductLoopOn_-732022517_0" nVehContrib="16" flow="192.00" occupancy="1.98" speed="9.31" harmonicMeanSpeed="9.05" length="3.19" nVehEntered="16"/>
    <interval begin="2700.00" end="3000.00" id="TLS4889475255_1_InductLoopOn_-732022517_1" nVehContrib="1" flow="12.00" occupancy="0.05" speed="12.64" harmonicMeanSpeed="12.64" length="2.00" nVehEntered="1"/>
    <interval begin="2700.00" end="3000.00" id="TLS4889475255_1_InductLoopOn_785902540#0_0" nVehContrib="9" flow="108.00" occupancy="0.76" speed="9.94" harmonicMeanSpeed="9.58" length="2.33" nVehEntered="9"/>
    <interval begin="2700.00" end="3000.00" id="TLS4889475255_1_InductLoopOn_785902540#0_1" nVehContrib="0" flow="0.00" occupancy="0.00" speed="-1.00" harmonicMeanSpeed="-1.00" length="-1.00" nVehEntered="0"/>
    <interval begin="3000.00" end="3300.00" id="TLS4889475255_1_InductLoopOn_785902529_0" nVehContrib="12" flow="144.00" occupancy="1.35" speed="8.95" harmonicMeanSpeed="8.63" length="2.75" nVehEntered="12"/>
    <interval begin="3000.00" end="3300.00" id="TLS4889475255_1_InductLoopOn_785902529_1" nVehContrib="0" flow="0.00" occupancy="0.00" speed="-1.00" harmonicMeanSpeed="-1.00" length="-1.00" nVehEntered="0"/>
    <interval begin="3000.00" end="3300.00" id="TLS4889475255_1_InductLoopOn_-785902540#2_0" nVehContrib="9" flow="108.00" occupancy="1.15" speed="9.44" harmonicMeanSpeed="8.98" length="3.11" nVehEntered="9"/>
    <interval begin="3000.00" end="3300.00" id="TLS4889475255_1_InductLoopOn_-785902540#2_1" nVehContrib="4" flow="48.00" occupancy="0.44" speed="9.11" harmonicMeanSpeed="8.77" length="2.75" nVehEntered="4"/>
    <interval begin="3000.00" end="3300.00" id="TLS4889475255_1_InductLoopOn_-732022517_0" nVehContrib="13" flow="156.00" occupancy="1.37" speed="9.74" harmonicMeanSpeed="9.40" length="2.85" nVehEntered="13"/>
    <interval begin="3000.00" end="3300.00" id="TLS4889475255_1_InductLoopOn_-732022517_1" nVehContrib="0" flow="0.00" occupancy="0.00" speed="-1.00" harmonicMeanSpeed="-1.00" length="-1.00" nVehEntered="0"/>
    <interval begin="3000.00" end="3300.00" id="TLS4889475255_1_InductLoopOn_785902540#0_0" nVehContrib="5" flow="60.00" occupancy="0.34" speed="10.06" harmonicMeanSpeed="9.85" length="2.00" nVehEntered="5"/>
    <interval begin="3000.00" end="3300.00" id="TLS4889475255_1_InductLoopOn_785902540#0_1" nVehContrib="1" flow="12.00" occupancy="0.06" speed="10.84" harmonicMeanSpeed="10.84" length="2.00" nVehEntered="1"/>
    <interval begin="3300.00" end="3600.00" id="TLS4889475255_1_InductLoopOn_785902529_0" nVehContrib="8" flow="96.00" occupancy="1.04" speed="9.02" harmonicMeanSpeed="8.60" length="3.12" nVehEntered="8"/>
    <interval begin="3300.00" end="3600.00" id="TLS4889475255_1_InductLoopOn_785902529_1" nVehContrib="1" flow="12.00" occupancy="0.08" speed="7.97" harmonicMeanSpeed="7.97" length="2.00" nVehEntered="1"/>
    <interval begin="3300.00" end="3600.00" id="TLS4889475255_1_InductLoopOn_-785902540#2_0" nVehContrib="7" flow="84.00" occupancy="0.72" speed="10.38" harmonicMeanSpeed="9.92" length="2.71" nVehEntered="7"/>
    <interval begin="3300.00" end="3600.00" id="TLS4889475255_1_InductLoopOn_-785902540#2_1" nVehContrib="2" flow="24.00" occupancy="0.40" speed="7.84" harmonicMeanSpeed="7.80" length="4.50" nVehEntered="2"/>
    <interval begin="3300.00" end="3600.00" id="TLS4889475255_1_InductLoopOn_-732022517_0" nVehContrib="12" flow="144.00" occupancy="1.32" speed="9.45" harmonicMeanSpeed="9.21" length="2.92" nVehEntered="12"/>
    <interval begin="3300.00" end="3600.00" id="TLS4889475255_1_InductLoopOn_-732022517_1" nVehContrib="3" flow="36.00" occupancy="0.35" speed="9.23" harmonicMeanSpeed="9.07" length="3.00" nVehEntered="3"/>
    <interval begin="3300.00" end="3600.00" id="TLS4889475255_1_InductLoopOn_785902540#0_0" nVehContrib="4" flow="48.00" occupancy="0.23" speed="11.81" harmonicMeanSpeed="11.80" length="2.00" nVehEntered="4"/>
    <interval begin="3300.00" end="3600.00" id="TLS4889475255_1_InductLoopOn_785902540#0_1" nVehContrib="2" flow="24.00" occupancy="0.15" speed="9.29" harmonicMeanSpeed="9.01" length="2.00" nVehEntered="2"/>
    <interval begin="3600.00" end="3900.00" id="TLS4889475255_1_InductLoopOn_785902529_0" nVehContrib="26" flow="312.00" occupancy="4.01" speed="8.43" harmonicMeanSpeed="8.06" length="3.27" nVehEntered="26"/>
    <interval begin="3600.00" end="3900.00" id="TLS4889475255_1_InductLoopOn_785902529_1" nVehContrib="2" flow="24.00" occupancy="0.46" speed="7.18" harmonicMeanSpeed="7.18" length="5.00" nVehEntered="2"/>
    <interval begin="3600.00" end="3900.00" id="TLS4889475255_1_InductLoopOn_-785902540#2_0" nVehContrib="21" flow="252.00" occupancy="3.55" speed="8.37" harmonicMeanSpeed="8.10" length="3.71" nVehEntered="22"/>
    <interval begin="3600.00" end="3900.00" id="TLS4889475255_1_InductLoopOn_-785902540#2_1" nVehContrib="9" flow="108.00" occupancy="1.46" speed="9.70" harmonicMeanSpeed="8.38" length="3.44" nVehEntered="9"/>
    <interval begin="3600.00" end="3900.00" id="TLS4889475255_1_InductLoopOn_-732022517_0" nVehContrib="25" flow="300.00" occupancy="4.01" speed="9.06" harmonicMeanSpeed="8.74" length="3.76" nVehEntered="25"/>
    <interval begin="3600.00" end="3900.00" id="TLS4889475255_1_InductLoopOn_-732022517_1" nVehContrib="6" flow="72.00" occupancy="0.76" speed="10.32" harmonicMeanSpeed="9.84" length="3.33" nVehEntered="6"/>
    <interval begin="3600.00" end="3900.00" id="TLS4889475255_1_InductLoopOn_785902540#0_0" nVehContrib="12" flow="144.00" occupancy="2.27" speed="8.73" harmonicMeanSpeed="7.98" length="3.75" nVehEntered="12"/>
    <interval begin="3600.00" end="3900.00" id="TLS4889475255_1_InductLoopOn_785902540#0_1" nVehContrib="3" flow="36.00" occupancy="0.20" speed="10.25" harmonicMeanSpeed="10.02" length="2.00" nVehEntered="3"/>
    <interval begin="3900.00" end="4200.00" id="TLS4889475255_1_InductLoopOn_785902529_0" nVehContrib="21" flow="252.00" occupancy="2.32" speed="8.83" harmonicMeanSpeed="8.54" length="2.71" nVehEntered="21"/>
    <interval begin="3900.00" end="4200.00" id="TLS4889475255_1_InductLoopOn_785902529_1" nVehContrib="1" flow="12.00" occupancy="0.08" speed="8.30" harmonicMeanSpeed="8.30" length="2.00" nVehEntered="1"/>
    <interval begin="3900.00" end="4200.00" id="TLS4889475255_1_InductLoopOn_-785902540#2_0" nVehContrib="20" flow="240.00" occupancy="2.91" speed="8.82" harmonicMeanSpeed="8.47" length="3.40" nVehEntered="20"/>
    <interval begin="3900.00" end="4200.00" id="TLS4889475255_1_InductLoopOn_-785902540#2_1" nVehContrib="6" flow="72.00" occupancy="0.90" speed="9.39" harmonicMeanSpeed="9.04" length="3.67" nVehEntered="6"/>
    <interval begin="3900.00" end="4200.00" id="TLS4889475255_1_InductLoopOn_-732022517_0" nVehContrib="21" flow="252.00" occupancy="2.54" speed="9.81" harmonicMeanSpeed="9.43" length="3.19" nVehEntered="21"/>
    <interval begin="3900.00" end="4200.00" id="TLS4889475255_1_InductLoopOn_-732022517_1" nVehContrib="5" flow="60.00" occupancy="0.47" speed="9.75" harmonicMeanSpeed="9.55" length="2.60" nVehEntered="5"/>
    <interval begin="3900.00" end="4200.00" id="TLS4889475255_1_InductLoopOn_785902540#0_0" nVehContrib="9" flow="108.00" occupancy="0.78" speed="9.85" harmonicMeanSpeed="9.48" length="2.33" nVehEntered="9"/>
    <interval begin="3900.00" end="4200.00" id="TLS4889475255_1_InductLoopOn_785902540#0_1" nVehContrib="2" flow="24.00" occupancy="0.14" speed="9.37" harmonicMeanSpeed="9.21" length="2.00" nVehEntered="2"/>
    <interval begin="4200.00" end="4500.00" id="TLS4889475255_1_InductLoopOn_785902529_0" nVehContrib="17" flow="204.00" occupancy="1.82" speed="8.81" harmonicMeanSpeed="8.59" length="2.53" nVehEntered="18"/>
    <interval begin="4200.00" end="4500.00" id="TLS4889475255_1_InductLoopOn_785902529_1" nVehContrib="2" flow="24.00" occupancy="0.70" speed="5.31" harmonicMeanSpeed="4.75" length="5.00" nVehEntered="2"/>
    <interval begin="4200.00" end="4500.00" id="TLS4889475255_1_InductLoopOn_-785902540#2_0" nVehContrib="20" flow="240.00" occupancy="3.63" speed="8.29" harmonicMeanSpeed="8.02" length="4.05" nVehEntered="20"/>
    <interval begin="4200.00" end="4500.00" id="TLS4889475255_1_InductLoopOn_-785902540#2_1" nVehContrib="6" flow="72.00" occupancy="0.64" speed="10.34" harmonicMeanSpeed="9.99" length="2.83" nVehEntered="6"/>
    <interval begin="4200.00" end="4500.00" id="TLS4889475255_1_InductLoopOn_-732022517_0" nVehContrib="22" flow="264.00" occupancy="2.79" speed="9.83" harmonicMeanSpeed="9.45" length="3.23" nVehEntered="23"/>
    <interval begin="4200.00" end="4500.00" id="TLS4889475255_1_InductLoopOn_-732022517_1" nVehContrib="5" flow="60.00" occupancy="0.99" speed="8.16" harmonicMeanSpeed="7.07" length="3.80" nVehEntered="5"/>
    <interval begin="4200.00" end="4500.00" id="TLS4889475255_1_InductLoopOn_785902540#0_0" nVehContrib="8" flow="96.00" occupancy="0.72" speed="9.99" harmonicMeanSpeed="9.50" length="2.38" nVehEntered="8"/>
    <interval begin="4200.00" end="4500.00" id="TLS4889475255_1_InductLoopOn_785902540#0_1" nVehContrib="3" flow="36.00" occupancy="0.23" speed="9.09" harmonicMeanSpeed="8.83" length="2.00" nVehEntered="3"/>
    <interval begin="4500.00" end="4800.00" id="TLS4889475255_1_InductLoopOn_785902529_0" nVehContrib="22" flow="264.00" occupancy="3.27" speed="8.71" harmonicMeanSpeed="8.23" length="3.14" nVehEntered="22"/>
    <interval begin="4500.00" end="4800.00" id="TLS4889475255_1_InductLoopOn_785902529_1" nVehContrib="3" flow="36.00" occupancy="0.56" speed="7.38" harmonicMeanSpeed="7.33" length="4.00" nVehEntered="3"/>
    <interval begin="4500.00" end="4800.00" id="TLS4889475255_1_InductLoopOn_-785902540#2_0" nVehContrib="23" flow="276.00" occupancy="3.39" speed="8.77" harmonicMeanSpeed="8.43" length="3.43" nVehEntered="23"/>
    <interval begin="4500.00" end="4800.00" id="TLS4889475255_1_InductLoopOn_-785902540#2_1" nVehContrib="4" flow="48.00" occupancy="0.81" speed="8.84" harmonicMeanSpeed="8.36" length="4.50" nVehEntered="4"/>
    <interval begin="4500.00" end="4800.00" id="TLS4889475255_1_InductLoopOn_-732022517_0" nVehContrib="23" flow="276.00" occupancy="2.64" speed="9.72" harmonicMeanSpeed="9.30" length="3.00" nVehEntered="23"/>
    <interval begin="4500.00" end="4800.00" id="TLS4889475255_1_InductLoopOn_-732022517_1" nVehContrib="3" flow="36.00" occupancy="0.59" speed="8.21" harmonicMeanSpeed="8.16" length="4.67" nVehEntered="3"/>
    <interval begin="4500.00" end="4800.00" id="TLS4889475255_1_InductLoopOn_785902540#0_0" nVehContrib="10" flow="120.00" occupancy="0.85" speed="9.79" harmonicMeanSpeed="9.43" length="2.30" nVehEntered="10"/>
    <interval begin="4500.00" end="4800.00" id="TLS4889475255_1_InductLoopOn_785902540#0_1" nVehContrib="1" flow="12.00" occupancy="0.06" speed="11.33" harmonicMeanSpeed="11.33" length="2.00" nVehEntered="1"/>
    <interval begin="4800.00" end="5100.00" id="TLS4889475255_1_InductLoopOn_785902529_0" nVehContrib="20" flow="240.00" occupancy="2.13" speed="8.80" harmonicMeanSpeed="8.49" length="2.60" nVehEntered="20"/>
    <interval begin="4800.00" end="5100.00" id="TLS4889475255_1_InductLoopOn_785902529_1" nVehContrib="1" flow="12.00" occupancy="0.23" speed="7.35" harmonicMeanSpeed="7.35" length="5.00" nVehEntered="1"/>
    <interval begin="4800.00" end="5100.00" id="TLS4889475255_1_InductLoopOn_-785902540#2_0" nVehContrib="19" flow="228.00" occupancy="3.26" speed="8.56" harmonicMeanSpeed="8.23" length="3.89" nVehEntered="19"/>
    <interval begin="4800.00" end="5100.00" id="TLS4889475255_1_InductLoopOn_-785902540#2_1" nVehContrib="6" flow="72.00" occupancy="1.01" speed="9.31" harmonicMeanSpeed="8.98" length="2.83" nVehEntered="7"/>
    <interval begin="4800.00" end="5100.00" id="TLS4889475255_1_InductLoopOn_-732022517_0" nVehContrib="19" flow="228.00" occupancy="2.91" speed="9.55" harmonicMeanSpeed="9.15" length="3.63" nVehEntered="19"/>
    <interval begin="4800.00" end="5100.00" id="TLS4889475255_1_InductLoopOn_-732022517_1" nVehContrib="8" flow="96.00" occupancy="1.23" speed="9.22" harmonicMeanSpeed="8.87" length="3.88" nVehEntered="8"/>
    <interval begin="4800.00" end="5100.00" id="TLS4889475255_1_InductLoopOn_785902540#0_0" nVehContrib="10" flow="120.00" occupancy="0.86" speed="9.59" harmonicMeanSpeed="9.22" length="2.30" nVehEntered="10"/>