<?xml version="1.0" encoding="UTF-8"?>

<!-- generated on 2022-04-05 06:37:50 by Eclipse SUMO GUI Version 1.10.0
<configuration xmlns:xsi="http://www.w3.org/2001/XMLSchema-instance" xsi:noNamespaceSchemaLocation="http://sumo.dlr.de/xsd/sumoConfiguration.xsd">

    <input>
        <net-file value="Simulation_Environment\Actuated\osm.net.xml"/>
        <route-files value="Simulation_Environment\Actuated\cars_SUV.xml,Simulation_Environment\Actuated\motorcycles_scooters.xml,Simulation_Environment\Actuated\taxi.xml,Simulation_Environment\Actuated\buses.xml,Simulation_Environment\Actuated\smallTrucks.xml,Simulation_Environment\Actuated\largeTrucks.xml,Simulation_Environment\Actuated\bicycle_tricycle.xml,Simulation_Environment\Actuated\jeepney.xml,Simulation_Environment\Actuated\motorela.xml"/>
        <additional-files value="Simulation_Environment\Actuated\osm.tlLogic.xml"/>
    </input>

    <output>
        <summary-output value="Results\actuated.xml"/>
        <tripinfo-output value="Data\Actuated\trip-info.xml"/>
    </output>

    <processing>
        <ignore-route-errors value="true"/>
        <scale value="1"/>
    </processing>

    <routing>
        <device.rerouting.adaptation-steps value="18"/>
        <device.rerouting.adaptation-interval value="10"/>
    </routing>

    <report>
        <verbose value="true"/>
        <duration-log.statistics value="true"/>
        <no-step-log value="true"/>
    </report>

    <traci_server>
        <remote-port value="61164"/>
    </traci_server>

    <gui_only>
        <gui-settings-file value="Simulation_Environment\Actuated\osm.view.xml"/>
        <start value="true"/>
    </gui_only>

</configuration>
-->

<detector xmlns:xsi="http://www.w3.org/2001/XMLSchema-instance" xsi:noNamespaceSchemaLocation="http://sumo.dlr.de/xsd/det_e1_file.xsd">
    <interval begin="0.00" end="300.00" id="TLS4889475255_1_InductLoopOn_785902529_0" nVehContrib="18" flow="216.00" occupancy="3.21" speed="8.88" harmonicMeanSpeed="8.22" length="3.67" nVehEntered="18"/>
    <interval begin="0.00" end="300.00" id="TLS4889475255_1_InductLoopOn_785902529_1" nVehContrib="3" flow="36.00" occupancy="0.65" speed="7.52" harmonicMeanSpeed="7.47" length="4.67" nVehEntered="3"/>
    <interval begin="0.00" end="300.00" id="TLS4889475255_1_InductLoopOn_-785902540#2_0" nVehContrib="15" flow="180.00" occupancy="2.19" speed="8.74" harmonicMeanSpeed="8.41" length="3.40" nVehEntered="15"/>
    <interval begin="0.00" end="300.00" id="TLS4889475255_1_InductLoopOn_-785902540#2_1" nVehContrib="4" flow="48.00" occupancy="0.57" speed="8.13" harmonicMeanSpeed="8.08" length="3.25" nVehEntered="4"/>
    <interval begin="0.00" end="300.00" id="TLS4889475255_1_InductLoopOn_-732022517_0" nVehContrib="19" flow="228.00" occupancy="3.33" speed="8.96" harmonicMeanSpeed="8.61" length="3.95" nVehEntered="19"/>
    <interval begin="0.00" end="300.00" id="TLS4889475255_1_InductLoopOn_-732022517_1" nVehContrib="2" flow="24.00" occupancy="0.78" speed="8.03" harmonicMeanSpeed="7.29" length="7.00" nVehEntered="2"/>
    <interval begin="0.00" end="300.00" id="TLS4889475255_1_InductLoopOn_785902540#0_0" nVehContrib="9" flow="108.00" occupancy="1.32" speed="8.77" harmonicMeanSpeed="8.42" length="3.44" nVehEntered="9"/>
    <interval begin="0.00" end="300.00" id="TLS4889475255_1_InductLoopOn_785902540#0_1" nVehContrib="2" flow="24.00" occupancy="0.12" speed="10.87" harmonicMeanSpeed="10.87" length="2.00" nVehEntered="2"/>
    <interval begin="300.00" end="600.00" id="TLS4889475255_1_InductLoopOn_785902529_0" nVehContrib="10" flow="120.00" occupancy="1.04" speed="9.18" harmonicMeanSpeed="8.84" length="2.60" nVehEntered="10"/>
    <interval begin="300.00" end="600.00" id="TLS4889475255_1_InductLoopOn_785902529_1" nVehContrib="1" flow="12.00" occupancy="0.22" speed="7.45" harmonicMeanSpeed="7.45" length="5.00" nVehEntered="1"/>
    <interval begin="300.00" end="600.00" id="TLS4889475255_1_InductLoopOn_-785902540#2_0" nVehContrib="9" flow="108.00" occupancy="1.32" speed="8.83" harmonicMeanSpeed="8.46" length="3.44" nVehEntered="9"/>
    <interval begin="300.00" end="600.00" id="TLS4889475255_1_InductLoopOn_-785902540#2_1" nVehContrib="3" flow="36.00" occupancy="0.18" speed="11.10" harmonicMeanSpeed="11.08" length="2.00" nVehEntered="3"/>
    <interval begin="300.00" end="600.00" id="TLS4889475255_1_InductLoopOn_-732022517_0" nVehContrib="15" flow="180.00" occupancy="1.71" speed="9.32" harmonicMeanSpeed="9.02" length="2.93" nVehEntered="15"/>
    <interval begin="300.00" end="600.00" id="TLS4889475255_1_InductLoopOn_-732022517_1" nVehContrib="0" flow="0.00" occupancy="0.00" speed="-1.00" harmonicMeanSpeed="-1.00" length="-1.00" nVehEntered="0"/>
    <interval begin="300.00" end="600.00" id="TLS4889475255_1_InductLoopOn_785902540#0_0" nVehContrib="7" flow="84.00" occupancy="0.46" speed="10.44" harmonicMeanSpeed="10.13" length="2.00" nVehEntered="7"/>
    <interval begin="300.00" end="600.00" id="TLS4889475255_1_InductLoopOn_785902540#0_1" nVehContrib="0" flow="0.00" occupancy="0.00" speed="-1.00" harmonicMeanSpeed="-1.00" length="-1.00" nVehEntered="0"/>
    <interval begin="600.00" end="739.00" id="TLS4889475255_1_InductLoopOn_785902529_0" nVehContrib="4" flow="103.60" occupancy="0.99" speed="8.91" harmonicMeanSpeed="8.47" length="2.75" nVehEntered="4"/>
    <interval begin="600.00" end="739.00" id="TLS4889475255_1_InductLoopOn_785902529_1" nVehContrib="0" flow="0.00" occupancy="0.00" speed="-1.00" harmonicMeanSpeed="-1.00" length="-1.00" nVehEntered="0"/>
    <interval begin="600.00" end="739.00" id="TLS4889475255_1_InductLoopOn_-785902540#2_0" nVehContrib="5" flow="129.50" occupancy="1.34" speed="9.07" harmonicMeanSpeed="8.70" length="3.00" nVehEntered="5"/>
    <interval begin="600.00" end="739.00" id="TLS4889475255_1_InductLoopOn_-785902540#2_1" nVehContrib="0" flow="0.00" occupancy="0.00" speed="-1.00" harmonicMeanSpeed="-1.00" length="-1.00" nVehEntered="0"/>
    <interval begin="600.00" end="739.00" id="TLS4889475255_1_InductLoopOn_-732022517_0" nVehContrib="9" flow="233.09" occupancy="2.37" speed="9.67" harmonicMeanSpeed="9.34" length="3.22" nVehEntered="9"/>
    <interval begin="600.00" end="739.00" id="TLS4889475255_1_InductLoopOn_-732022517_1" nVehContrib="0" flow="0.00" occupancy="0.00" speed="-1.00" harmonicMeanSpeed="-1.00" length="-1.00" nVehEntered="0"/>
    <interval begin="600.00" end="739.00" id="TLS4889475255_1_InductLoopOn_785902540#0_0" nVehContrib="4" flow="103.60" occupancy="0.96" speed="8.81" harmonicMeanSpeed="8.51" length="2.75" nVehEntered="4"/>
    <interval begin="600.00" end="739.00" id="TLS4889475255_1_InductLoopOn_785902540#0_1" nVehContrib="1" flow="25.90" occupancy="0.14" speed="10.52" harmonicMeanSpeed="10.52" length="2.00" nVehEntered="1"/>
</detector>
